 Entering Gaussian System, Link 0=g16
 Initial command:
 /share/apps/Gaussian/g16_b01/g16/l1.exe "/work/169279.vici.chem.tamu.edu/Gau-19159.inp" -scrdir="/work/169279.vici.chem.tamu.edu/"
 Entering Link 1 = /share/apps/Gaussian/g16_b01/g16/l1.exe PID=     19160.
  
 Copyright (c) 1988-2017, Gaussian, Inc.  All Rights Reserved.
  
 This is part of the Gaussian(R) 16 program.  It is based on
 the Gaussian(R) 09 system (copyright 2009, Gaussian, Inc.),
 the Gaussian(R) 03 system (copyright 2003, Gaussian, Inc.),
 the Gaussian(R) 98 system (copyright 1998, Gaussian, Inc.),
 the Gaussian(R) 94 system (copyright 1995, Gaussian, Inc.),
 the Gaussian 92(TM) system (copyright 1992, Gaussian, Inc.),
 the Gaussian 90(TM) system (copyright 1990, Gaussian, Inc.),
 the Gaussian 88(TM) system (copyright 1988, Gaussian, Inc.),
 the Gaussian 86(TM) system (copyright 1986, Carnegie Mellon
 University), and the Gaussian 82(TM) system (copyright 1983,
 Carnegie Mellon University). Gaussian is a federally registered
 trademark of Gaussian, Inc.
  
 This software contains proprietary and confidential information,
 including trade secrets, belonging to Gaussian, Inc.
  
 This software is provided under written license and may be
 used, copied, transmitted, or stored only in accord with that
 written license.
  
 The following legend is applicable only to US Government
 contracts under FAR:
  
                    RESTRICTED RIGHTS LEGEND
  
 Use, reproduction and disclosure by the US Government is
 subject to restrictions as set forth in subparagraphs (a)
 and (c) of the Commercial Computer Software - Restricted
 Rights clause in FAR 52.227-19.
  
 Gaussian, Inc.
 340 Quinnipiac St., Bldg. 40, Wallingford CT 06492
  
  
 ---------------------------------------------------------------
 Warning -- This program may not be used in any manner that
 competes with the business of Gaussian, Inc. or will provide
 assistance to any competitor of Gaussian, Inc.  The licensee
 of this program is prohibited from giving any competitor of
 Gaussian, Inc. access to this program.  By using this program,
 the user acknowledges that Gaussian, Inc. is engaged in the
 business of creating and licensing software in the field of
 computational chemistry and represents and warrants to the
 licensee that it is not a competitor of Gaussian, Inc. and that
 it will not use this program in any manner prohibited above.
 ---------------------------------------------------------------
  

 Cite this work as:
 Gaussian 16, Revision B.01,
 M. J. Frisch, G. W. Trucks, H. B. Schlegel, G. E. Scuseria, 
 M. A. Robb, J. R. Cheeseman, G. Scalmani, V. Barone, 
 G. A. Petersson, H. Nakatsuji, X. Li, M. Caricato, A. V. Marenich, 
 J. Bloino, B. G. Janesko, R. Gomperts, B. Mennucci, H. P. Hratchian, 
 J. V. Ortiz, A. F. Izmaylov, J. L. Sonnenberg, D. Williams-Young, 
 F. Ding, F. Lipparini, F. Egidi, J. Goings, B. Peng, A. Petrone, 
 T. Henderson, D. Ranasinghe, V. G. Zakrzewski, J. Gao, N. Rega, 
 G. Zheng, W. Liang, M. Hada, M. Ehara, K. Toyota, R. Fukuda, 
 J. Hasegawa, M. Ishida, T. Nakajima, Y. Honda, O. Kitao, H. Nakai, 
 T. Vreven, K. Throssell, J. A. Montgomery, Jr., J. E. Peralta, 
 F. Ogliaro, M. J. Bearpark, J. J. Heyd, E. N. Brothers, K. N. Kudin, 
 V. N. Staroverov, T. A. Keith, R. Kobayashi, J. Normand, 
 K. Raghavachari, A. P. Rendell, J. C. Burant, S. S. Iyengar, 
 J. Tomasi, M. Cossi, J. M. Millam, M. Klene, C. Adamo, R. Cammi, 
 J. W. Ochterski, R. L. Martin, K. Morokuma, O. Farkas, 
 J. B. Foresman, and D. J. Fox, Gaussian, Inc., Wallingford CT, 2016.
 
 ******************************************
 Gaussian 16:  EM64L-G16RevB.01 20-Dec-2017
                 7-Jan-2020 
 ******************************************
 %mem=3800mb
 %nprocshared=1
 Will use up to    1 processors via shared memory.
 ----------------------------------------------------------------------
 # b3lyp/Def2SVPP opt=(MaxCycles=300) int(grid=ultrafine) IOP(3/36=4) s
 cf=(xqc,tight)
 ----------------------------------------------------------------------
 1/6=300,18=20,19=15,26=4,38=1/1,3;
 2/9=110,12=2,17=6,18=5,40=1/2;
 3/5=43,7=202,11=2,25=1,30=1,36=4,71=1,74=-5,75=-5/1,2,3;
 4//1;
 5/5=2,8=3,13=1,32=2,38=5/2,8;
 6/7=2,8=2,9=2,10=2,28=1/1;
 7//1,2,3,16;
 1/6=300,18=20,19=15,26=4/3(2);
 2/9=110/2;
 99//99;
 2/9=110/2;
 3/5=43,7=202,11=2,25=1,30=1,36=4,71=1,74=-5,75=-5/1,2,3;
 4/5=5,16=3,69=1/1;
 5/5=2,8=3,13=1,32=2,38=5/2,8;
 7//1,2,3,16;
 1/6=300,18=20,19=15,26=4/3(-5);
 2/9=110/2;
 6/7=2,8=2,9=2,10=2,19=2,28=1/1;
 99/9=1/99;
 --------------
 Comment gs min
 --------------
 Symbolic Z-matrix:
 Charge =  0 Multiplicity = 1
 H                    -0.7      -0.7       0. 
 O                     0.        0.        0. 
 H                     0.7       0.7       0. 
 

 GradGradGradGradGradGradGradGradGradGradGradGradGradGradGradGradGradGrad
 Berny optimization.
 Initialization pass.
                           ----------------------------
                           !    Initial Parameters    !
                           ! (Angstroms and Degrees)  !
 --------------------------                            --------------------------
 ! Name  Definition              Value          Derivative Info.                !
 --------------------------------------------------------------------------------
 ! R1    R(1,2)                  0.9899         estimate D2E/DX2                !
 ! R2    R(2,3)                  0.9899         estimate D2E/DX2                !
 ! A1    L(1,2,3,-3,-1)        180.0            estimate D2E/DX2                !
 ! A2    L(1,2,3,-2,-2)        180.0            estimate D2E/DX2                !
 --------------------------------------------------------------------------------
 Trust Radius=3.00D-01 FncErr=1.00D-07 GrdErr=1.00D-06 EigMax=2.50D+02 EigMin=1.00D-04
 Number of steps in this run=    100 maximum allowed number of steps=    100.
 GradGradGradGradGradGradGradGradGradGradGradGradGradGradGradGradGradGrad

                          Input orientation:                          
 ---------------------------------------------------------------------
 Center     Atomic      Atomic             Coordinates (Angstroms)
 Number     Number       Type             X           Y           Z
 ---------------------------------------------------------------------
      1          1           0       -0.700000   -0.700000    0.000000
      2          8           0        0.000000    0.000000    0.000000
      3          1           0        0.700000    0.700000    0.000000
 ---------------------------------------------------------------------
                    Distance matrix (angstroms):
                    1          2          3
     1  H    0.000000
     2  O    0.989949   0.000000
     3  H    1.979899   0.989949   0.000000
 Stoichiometry    H2O
 Framework group  D*H[O(O),C*(H.H)]
 Deg. of freedom     1
 Full point group                 D*H     NOp   8
 Largest Abelian subgroup         D2H     NOp   8
 Largest concise Abelian subgroup C2      NOp   2
                         Standard orientation:                         
 ---------------------------------------------------------------------
 Center     Atomic      Atomic             Coordinates (Angstroms)
 Number     Number       Type             X           Y           Z
 ---------------------------------------------------------------------
      1          1           0        0.000000    0.000000    0.989949
      2          8           0        0.000000    0.000000    0.000000
      3          1           0        0.000000    0.000000   -0.989949
 ---------------------------------------------------------------------
 Rotational constants (GHZ):           0.0000000         255.8444411         255.8444411
 Standard basis: def2SVPP (5D, 7F)
 There are     8 symmetry adapted cartesian basis functions of AG  symmetry.
 There are     1 symmetry adapted cartesian basis functions of B1G symmetry.
 There are     1 symmetry adapted cartesian basis functions of B2G symmetry.
 There are     1 symmetry adapted cartesian basis functions of B3G symmetry.
 There are     0 symmetry adapted cartesian basis functions of AU  symmetry.
 There are     4 symmetry adapted cartesian basis functions of B1U symmetry.
 There are     2 symmetry adapted cartesian basis functions of B2U symmetry.
 There are     2 symmetry adapted cartesian basis functions of B3U symmetry.
 There are     7 symmetry adapted basis functions of AG  symmetry.
 There are     1 symmetry adapted basis functions of B1G symmetry.
 There are     1 symmetry adapted basis functions of B2G symmetry.
 There are     1 symmetry adapted basis functions of B3G symmetry.
 There are     0 symmetry adapted basis functions of AU  symmetry.
 There are     4 symmetry adapted basis functions of B1U symmetry.
 There are     2 symmetry adapted basis functions of B2U symmetry.
 There are     2 symmetry adapted basis functions of B3U symmetry.
    18 basis functions,    33 primitive gaussians,    19 cartesian basis functions
     5 alpha electrons        5 beta electrons
       nuclear repulsion energy         8.8200701511 Hartrees.
 NAtoms=    3 NActive=    3 NUniq=    2 SFac= 2.25D+00 NAtFMM=   60 NAOKFM=F Big=F
 Integral buffers will be    131072 words long.
 Raffenetti 2 integral format.
 Two-electron integral symmetry is turned on.
 One-electron integrals computed using PRISM.
   8 Symmetry operations used in ECPInt.
 ECPInt:  NShTT=      55 NPrTT=     229 LenC2=      56 LenP2D=     228.
 LDataN:  DoStor=T MaxTD1= 4 Len=   56
 NBasis=    18 RedAO= T EigKep=  7.52D-02  NBF=     7     1     1     1     0     4     2     2
 NBsUse=    18 1.00D-06 EigRej= -1.00D+00 NBFU=     7     1     1     1     0     4     2     2
 ExpMin= 1.22D-01 ExpMax= 2.27D+03 ExpMxC= 3.41D+02 IAcc=3 IRadAn=         5 AccDes= 0.00D+00
 Harris functional with IExCor=  402 and IRadAn=       5 diagonalized for initial guess.
 HarFok:  IExCor=  402 AccDes= 0.00D+00 IRadAn=         5 IDoV= 1 UseB2=F ITyADJ=14
 ICtDFT=  3500011 ScaDFX=  1.000000  1.000000  1.000000  1.000000
 FoFCou: FMM=F IPFlag=           0 FMFlag=      100000 FMFlg1=           0
         NFxFlg=           0 DoJE=T BraDBF=F KetDBF=T FulRan=T
         wScrn=  0.000000 ICntrl=       500 IOpCl=  0 I1Cent=   200000004 NGrid=           0
         NMat0=    1 NMatS0=      1 NMatT0=    0 NMatD0=    1 NMtDS0=    0 NMtDT0=    0
 Petite list used in FoFCou.
 Initial guess orbital symmetries:
       Occupied  (SGG) (SGG) (SGU) (PIU) (PIU)
       Virtual   (SGG) (SGU) (SGG) (SGU) (PIU) (PIU) (SGG) (SGU)
                 (PIG) (PIG) (DLTG) (DLTG) (SGG)
 The electronic state of the initial guess is 1-SGG.
 Keep R1 ints in memory in symmetry-blocked form, NReq=880297.
 Requested convergence on RMS density matrix=1.00D-08 within  32 cycles.
 Requested convergence on MAX density matrix=1.00D-06.
 Requested convergence on             energy=1.00D-06.
 No special actions if energy rises.
 Integral accuracy reduced to 1.0D-05 until final iterations.
 Initial convergence to 1.0D-05 achieved.  Increase integral accuracy.
 SCF Done:  E(RB3LYP) =  -76.2846611663     A.U. after    8 cycles
            NFock=  8  Conv=0.82D-09     -V/T= 2.0083
 QCSCF skips out because SCF is already converged.

 **********************************************************************

            Population analysis using the SCF Density.

 **********************************************************************

 Orbital symmetries:
       Occupied  (SGG) (SGG) (SGU) (PIU) (PIU)
       Virtual   (SGG) (SGU) (SGG) (SGU) (PIU) (PIU) (SGG) (SGU)
                 (PIG) (PIG) (DLTG) (DLTG) (SGG)
 The electronic state is 1-SGG.
 Alpha  occ. eigenvalues --  -19.07124  -0.92467  -0.56195  -0.26341  -0.26341
 Alpha virt. eigenvalues --    0.02073   0.12514   0.40972   0.81719   0.93997
 Alpha virt. eigenvalues --    0.93997   1.12605   1.43486   2.58014   2.58014
 Alpha virt. eigenvalues --    2.68075   2.68075   3.09726
          Condensed to atoms (all electrons):
               1          2          3
     1  H    0.350685   0.296338  -0.023853
     2  O    0.296338   8.160987   0.296338
     3  H   -0.023853   0.296338   0.350685
 Mulliken charges:
               1
     1  H    0.376831
     2  O   -0.753662
     3  H    0.376831
 Sum of Mulliken charges =  -0.00000
 Mulliken charges with hydrogens summed into heavy atoms:
               1
     2  O   -0.000000
 Electronic spatial extent (au):  <R**2>=             19.0546
 Charge=             -0.0000 electrons
 Dipole moment (field-independent basis, Debye):
    X=              0.0000    Y=              0.0000    Z=              0.0000  Tot=              0.0000
 Quadrupole moment (field-independent basis, Debye-Ang):
   XX=             -7.1836   YY=             -7.1836   ZZ=             -1.8475
   XY=             -0.0000   XZ=             -0.0000   YZ=             -0.0000
 Traceless Quadrupole moment (field-independent basis, Debye-Ang):
   XX=             -1.7787   YY=             -1.7787   ZZ=              3.5574
   XY=             -0.0000   XZ=             -0.0000   YZ=             -0.0000
 Octapole moment (field-independent basis, Debye-Ang**2):
  XXX=             -0.0000  YYY=             -0.0000  ZZZ=             -0.0000  XYY=             -0.0000
  XXY=             -0.0000  XXZ=              0.0000  XZZ=              0.0000  YZZ=              0.0000
  YYZ=              0.0000  XYZ=             -0.0000
 Hexadecapole moment (field-independent basis, Debye-Ang**3):
 XXXX=             -5.0901 YYYY=             -5.0901 ZZZZ=             -3.4006 XXXY=             -0.0000
 XXXZ=              0.0000 YYYX=             -0.0000 YYYZ=              0.0000 ZZZX=             -0.0000
 ZZZY=             -0.0000 XXYY=             -1.6967 XXZZ=             -2.2282 YYZZ=             -2.2282
 XXYZ=              0.0000 YYXZ=              0.0000 ZZXY=             -0.0000
 N-N= 8.820070151143D+00 E-N=-1.982875081085D+02  KE= 7.565852381206D+01
 Symmetry AG   KE= 6.325918633344D+01
 Symmetry B1G  KE= 1.939214971534D-31
 Symmetry B2G  KE= 4.087078288851D-33
 Symmetry B3G  KE= 1.206895090843D-34
 Symmetry AU   KE= 0.000000000000D+00
 Symmetry B1U  KE= 3.324609420354D+00
 Symmetry B2U  KE= 4.537364029133D+00
 Symmetry B3U  KE= 4.537364029133D+00
   8 Symmetry operations used in ECPInt.
 ECPInt:  NShTT=      55 NPrTT=     229 LenC2=      56 LenP2D=     228.
 LDataN:  DoStor=T MaxTD1= 5 Len=  102
 Calling FoFJK, ICntrl=      2127 FMM=F ISym2X=1 I1Cent= 0 IOpClX= 0 NMat=1 NMatS=1 NMatT=0.
 ***** Axes restored to original set *****
 -------------------------------------------------------------------
 Center     Atomic                   Forces (Hartrees/Bohr)
 Number     Number              X              Y              Z
 -------------------------------------------------------------------
      1        1           0.035234562    0.035234562   -0.000000000
      2        8          -0.000000000   -0.000000000    0.000000000
      3        1          -0.035234562   -0.035234562   -0.000000000
 -------------------------------------------------------------------
 Cartesian Forces:  Max     0.035234562 RMS     0.023489708

 GradGradGradGradGradGradGradGradGradGradGradGradGradGradGradGradGradGrad
 Berny optimization.
 FormGI is forming the generalized inverse of G from B-inverse, IUseBI=4.
 Internal  Forces:  Max     0.049829195 RMS     0.035234562
 Search for a local minimum.
 Step number   1 out of a maximum of  100
 All quantities printed in internal units (Hartrees-Bohrs-Radians)
 Mixed Optimization -- RFO/linear search
 Second derivative matrix not updated -- first step.
 The second derivative matrix:
                          R1        R2        A1        A2
           R1           0.49500
           R2           0.00000   0.49500
           A1           0.00000   0.00000   0.01161
           A2           0.00000   0.00000   0.00000   0.01161
 ITU=  0
     Eigenvalues ---    0.01161   0.01161   0.49500   0.49500
 RFO step:  Lambda=-9.83665699D-03 EMin= 1.16133109D-02
 Linear search not attempted -- first point.
 Iteration  1 RMS(Cart)=  0.06979410 RMS(Int)=  0.00000001
 Iteration  2 RMS(Cart)=  0.00000001 RMS(Int)=  0.00000000
 ClnCor:  largest displacement from symmetrization is 1.08D-08 for atom     2.
 Variable       Old X    -DE/DX   Delta X   Delta X   Delta X     New X
                                 (Linear)    (Quad)   (Total)
    R1        1.87073  -0.04983   0.00000  -0.09870  -0.09870   1.77203
    R2        1.87073  -0.04983   0.00000  -0.09870  -0.09870   1.77203
    A1        3.14159  -0.00000   0.00000  -0.00000   0.00000   3.14159
    A2        3.14159  -0.00000   0.00000  -0.00000   0.00000   3.14159
         Item               Value     Threshold  Converged?
 Maximum Force            0.049829     0.000450     NO 
 RMS     Force            0.035235     0.000300     NO 
 Maximum Displacement     0.069794     0.001800     NO 
 RMS     Displacement     0.069794     0.001200     NO 
 Predicted change in Energy=-5.014162D-03
 GradGradGradGradGradGradGradGradGradGradGradGradGradGradGradGradGradGrad

                          Input orientation:                          
 ---------------------------------------------------------------------
 Center     Atomic      Atomic             Coordinates (Angstroms)
 Number     Number       Type             X           Y           Z
 ---------------------------------------------------------------------
      1          1           0       -0.663067   -0.663067    0.000000
      2          8           0       -0.000000   -0.000000   -0.000000
      3          1           0        0.663067    0.663067    0.000000
 ---------------------------------------------------------------------
                    Distance matrix (angstroms):
                    1          2          3
     1  H    0.000000
     2  O    0.937718   0.000000
     3  H    1.875435   0.937718   0.000000
 Stoichiometry    H2O
 Framework group  D*H[O(O),C*(H.H)]
 Deg. of freedom     1
 Full point group                 D*H     NOp   8
 Largest Abelian subgroup         D2H     NOp   8
 Largest concise Abelian subgroup C2      NOp   2
                         Standard orientation:                         
 ---------------------------------------------------------------------
 Center     Atomic      Atomic             Coordinates (Angstroms)
 Number     Number       Type             X           Y           Z
 ---------------------------------------------------------------------
      1          1           0        0.000000    0.000000    0.937718
      2          8           0        0.000000    0.000000    0.000000
      3          1           0        0.000000    0.000000   -0.937718
 ---------------------------------------------------------------------
 Rotational constants (GHZ):           0.0000000         285.1397895         285.1397895
 Standard basis: def2SVPP (5D, 7F)
 There are     8 symmetry adapted cartesian basis functions of AG  symmetry.
 There are     1 symmetry adapted cartesian basis functions of B1G symmetry.
 There are     1 symmetry adapted cartesian basis functions of B2G symmetry.
 There are     1 symmetry adapted cartesian basis functions of B3G symmetry.
 There are     0 symmetry adapted cartesian basis functions of AU  symmetry.
 There are     4 symmetry adapted cartesian basis functions of B1U symmetry.
 There are     2 symmetry adapted cartesian basis functions of B2U symmetry.
 There are     2 symmetry adapted cartesian basis functions of B3U symmetry.
 There are     7 symmetry adapted basis functions of AG  symmetry.
 There are     1 symmetry adapted basis functions of B1G symmetry.
 There are     1 symmetry adapted basis functions of B2G symmetry.
 There are     1 symmetry adapted basis functions of B3G symmetry.
 There are     0 symmetry adapted basis functions of AU  symmetry.
 There are     4 symmetry adapted basis functions of B1U symmetry.
 There are     2 symmetry adapted basis functions of B2U symmetry.
 There are     2 symmetry adapted basis functions of B3U symmetry.
    18 basis functions,    33 primitive gaussians,    19 cartesian basis functions
     5 alpha electrons        5 beta electrons
       nuclear repulsion energy         9.3113565964 Hartrees.
 NAtoms=    3 NActive=    3 NUniq=    2 SFac= 2.25D+00 NAtFMM=   60 NAOKFM=F Big=F
 Integral buffers will be    131072 words long.
 Raffenetti 2 integral format.
 Two-electron integral symmetry is turned on.
 One-electron integrals computed using PRISM.
   8 Symmetry operations used in ECPInt.
 ECPInt:  NShTT=      55 NPrTT=     229 LenC2=      56 LenP2D=     228.
 LDataN:  DoStor=T MaxTD1= 4 Len=   56
 NBasis=    18 RedAO= T EigKep=  6.97D-02  NBF=     7     1     1     1     0     4     2     2
 NBsUse=    18 1.00D-06 EigRej= -1.00D+00 NBFU=     7     1     1     1     0     4     2     2
 Initial guess from the checkpoint file:  "/work/169279.vici.chem.tamu.edu/Gau-19160.chk"
 B after Tr=     0.000000   -0.000000    0.000000
         Rot=    1.000000    0.000000    0.000000    0.000000 Ang=   0.00 deg.
 Initial guess orbital symmetries:
       Occupied  (SGG) (SGG) (SGU) (PIU) (PIU)
       Virtual   (SGG) (SGU) (SGG) (SGU) (PIU) (PIU) (SGG) (SGU)
                 (PIG) (PIG) (DLTG) (DLTG) (SGG)
 ExpMin= 1.22D-01 ExpMax= 2.27D+03 ExpMxC= 3.41D+02 IAcc=3 IRadAn=         5 AccDes= 0.00D+00
 Harris functional with IExCor=  402 and IRadAn=       5 diagonalized for initial guess.
 HarFok:  IExCor=  402 AccDes= 0.00D+00 IRadAn=         5 IDoV= 1 UseB2=F ITyADJ=14
 ICtDFT=  3500011 ScaDFX=  1.000000  1.000000  1.000000  1.000000
 FoFCou: FMM=F IPFlag=           0 FMFlag=      100000 FMFlg1=           0
         NFxFlg=           0 DoJE=T BraDBF=F KetDBF=T FulRan=T
         wScrn=  0.000000 ICntrl=       500 IOpCl=  0 I1Cent=   200000004 NGrid=           0
         NMat0=    1 NMatS0=      1 NMatT0=    0 NMatD0=    1 NMtDS0=    0 NMtDT0=    0
 Petite list used in FoFCou.
 Keep R1 ints in memory in symmetry-blocked form, NReq=880297.
 Requested convergence on RMS density matrix=1.00D-08 within  32 cycles.
 Requested convergence on MAX density matrix=1.00D-06.
 Requested convergence on             energy=1.00D-06.
 No special actions if energy rises.
 Integral accuracy reduced to 1.0D-05 until final iterations.
 Initial convergence to 1.0D-05 achieved.  Increase integral accuracy.
 SCF Done:  E(RB3LYP) =  -76.2898842356     A.U. after    8 cycles
            NFock=  8  Conv=0.40D-08     -V/T= 2.0057
 QCSCF skips out because SCF is already converged.
   8 Symmetry operations used in ECPInt.
 ECPInt:  NShTT=      55 NPrTT=     229 LenC2=      56 LenP2D=     228.
 LDataN:  DoStor=T MaxTD1= 5 Len=  102
 Calling FoFJK, ICntrl=      2127 FMM=F ISym2X=1 I1Cent= 0 IOpClX= 0 NMat=1 NMatS=1 NMatT=0.
 ***** Axes restored to original set *****
 -------------------------------------------------------------------
 Center     Atomic                   Forces (Hartrees/Bohr)
 Number     Number              X              Y              Z
 -------------------------------------------------------------------
      1        1          -0.000084522   -0.000084522   -0.000000000
      2        8           0.000000000    0.000000000    0.000000000
      3        1           0.000084522    0.000084522   -0.000000000
 -------------------------------------------------------------------
 Cartesian Forces:  Max     0.000084522 RMS     0.000056348

 GradGradGradGradGradGradGradGradGradGradGradGradGradGradGradGradGradGrad
 Berny optimization.
 Using GEDIIS/GDIIS optimizer.
 Internal  Forces:  Max     0.000119532 RMS     0.000084522
 Search for a local minimum.
 Step number   2 out of a maximum of  100
 All quantities printed in internal units (Hartrees-Bohrs-Radians)
 Mixed Optimization -- En-DIIS/RFO-DIIS
 Update second derivatives using D2CorX and points    1    2
 DE= -5.22D-03 DEPred=-5.01D-03 R= 1.04D+00
 TightC=F SS=  1.41D+00  RLast= 1.40D-01 DXNew= 5.0454D-01 4.1876D-01
 Trust test= 1.04D+00 RLast= 1.40D-01 DXMaxT set to 4.19D-01
 The second derivative matrix:
                          R1        R2        A1        A2
           R1           0.50052
           R2           0.00552   0.50052
           A1          -0.00000  -0.00000   0.01161
           A2          -0.00000  -0.00000   0.00000   0.01161
 ITU=  1  0
 Use linear search instead of GDIIS.
     Eigenvalues ---    0.01161   0.01161   0.49500   0.50605
 RFO step:  Lambda= 0.00000000D+00 EMin= 1.16133109D-02
 Quartic linear search produced a step of -0.00200.
 Iteration  1 RMS(Cart)=  0.00013937 RMS(Int)=  0.00000000
 Iteration  2 RMS(Cart)=  0.00000000 RMS(Int)=  0.00000000
 ClnCor:  largest displacement from symmetrization is 1.21D-13 for atom     2.
 Variable       Old X    -DE/DX   Delta X   Delta X   Delta X     New X
                                 (Linear)    (Quad)   (Total)
    R1        1.77203   0.00012   0.00020   0.00000   0.00020   1.77223
    R2        1.77203   0.00012   0.00020  -0.00000   0.00020   1.77223
    A1        3.14159  -0.00000   0.00000  -0.00000   0.00000   3.14159
    A2        3.14159  -0.00000   0.00000  -0.00000   0.00000   3.14159
         Item               Value     Threshold  Converged?
 Maximum Force            0.000120     0.000450     YES
 RMS     Force            0.000085     0.000300     YES
 Maximum Displacement     0.000139     0.001800     YES
 RMS     Displacement     0.000139     0.001200     YES
 Predicted change in Energy=-2.746056D-08
 Optimization completed.
    -- Stationary point found.
                           ----------------------------
                           !   Optimized Parameters   !
                           ! (Angstroms and Degrees)  !
 --------------------------                            --------------------------
 ! Name  Definition              Value          Derivative Info.                !
 --------------------------------------------------------------------------------
 ! R1    R(1,2)                  0.9377         -DE/DX =    0.0001              !
 ! R2    R(2,3)                  0.9377         -DE/DX =    0.0001              !
 ! A1    L(1,2,3,-3,-1)        180.0            -DE/DX =    0.0                 !
 ! A2    L(1,2,3,-2,-2)        180.0            -DE/DX =    0.0                 !
 --------------------------------------------------------------------------------
 GradGradGradGradGradGradGradGradGradGradGradGradGradGradGradGradGradGrad

                          Input orientation:                          
 ---------------------------------------------------------------------
 Center     Atomic      Atomic             Coordinates (Angstroms)
 Number     Number       Type             X           Y           Z
 ---------------------------------------------------------------------
      1          1           0       -0.663067   -0.663067   -0.000000
      2          8           0        0.000000    0.000000    0.000000
      3          1           0        0.663067    0.663067    0.000000
 ---------------------------------------------------------------------
                    Distance matrix (angstroms):
                    1          2          3
     1  H    0.000000
     2  O    0.937718   0.000000
     3  H    1.875435   0.937718   0.000000
 Stoichiometry    H2O
 Framework group  D*H[O(O),C*(H.H)]
 Deg. of freedom     1
 Full point group                 D*H     NOp   8
 Largest Abelian subgroup         D2H     NOp   8
 Largest concise Abelian subgroup C2      NOp   2
                         Standard orientation:                         
 ---------------------------------------------------------------------
 Center     Atomic      Atomic             Coordinates (Angstroms)
 Number     Number       Type             X           Y           Z
 ---------------------------------------------------------------------
      1          1           0       -0.000000    0.000000    0.937718
      2          8           0        0.000000    0.000000    0.000000
      3          1           0        0.000000    0.000000   -0.937718
 ---------------------------------------------------------------------
 Rotational constants (GHZ):           0.0000000         285.1397895         285.1397895

 **********************************************************************

            Population analysis using the SCF Density.

 **********************************************************************

 Orbital symmetries:
       Occupied  (SGG) (SGG) (SGU) (PIU) (PIU)
       Virtual   (SGG) (SGU) (SGG) (SGU) (PIU) (PIU) (SGG) (SGU)
                 (PIG) (PIG) (DLTG) (DLTG) (SGG)
 The electronic state is 1-SGG.
 Alpha  occ. eigenvalues --  -19.06915  -0.94827  -0.59064  -0.27283  -0.27283
 Alpha virt. eigenvalues --    0.04211   0.13299   0.43316   0.89807   0.93495
 Alpha virt. eigenvalues --    0.93495   1.13499   1.44696   2.55776   2.55776
 Alpha virt. eigenvalues --    2.67034   2.67034   3.15680
          Condensed to atoms (all electrons):
               1          2          3
     1  H    0.366083   0.308798  -0.027165
     2  O    0.308798   8.086972   0.308798
     3  H   -0.027165   0.308798   0.366083
 Mulliken charges:
               1
     1  H    0.352284
     2  O   -0.704568
     3  H    0.352284
 Sum of Mulliken charges =   0.00000
 Mulliken charges with hydrogens summed into heavy atoms:
               1
     2  O    0.000000
 Electronic spatial extent (au):  <R**2>=             18.4882
 Charge=              0.0000 electrons
 Dipole moment (field-independent basis, Debye):
    X=              0.0000    Y=              0.0000    Z=             -0.0000  Tot=              0.0000
 Quadrupole moment (field-independent basis, Debye-Ang):
   XX=             -7.0805   YY=             -7.0805   ZZ=             -2.2591
   XY=             -0.0000   XZ=             -0.0000   YZ=             -0.0000
 Traceless Quadrupole moment (field-independent basis, Debye-Ang):
   XX=             -1.6071   YY=             -1.6071   ZZ=              3.2143
   XY=             -0.0000   XZ=             -0.0000   YZ=             -0.0000
 Octapole moment (field-independent basis, Debye-Ang**2):
  XXX=             -0.0000  YYY=              0.0000  ZZZ=             -0.0000  XYY=             -0.0000
  XXY=              0.0000  XXZ=             -0.0000  XZZ=              0.0000  YZZ=              0.0000
  YYZ=             -0.0000  XYZ=             -0.0000
 Hexadecapole moment (field-independent basis, Debye-Ang**3):
 XXXX=             -4.9813 YYYY=             -4.9813 ZZZZ=             -3.7199 XXXY=             -0.0000
 XXXZ=              0.0000 YYYX=             -0.0000 YYYZ=              0.0000 ZZZX=             -0.0000
 ZZZY=             -0.0000 XXYY=             -1.6604 XXZZ=             -2.0845 YYZZ=             -2.0845
 XXYZ=              0.0000 YYXZ=              0.0000 ZZXY=             -0.0000
 N-N= 9.311356596409D+00 E-N=-1.993195762086D+02  KE= 7.586057590241D+01
 Symmetry AG   KE= 6.328462388113D+01
 Symmetry B1G  KE= 5.212923745766D-34
 Symmetry B2G  KE= 1.735066684271D-32
 Symmetry B3G  KE= 2.268883139698D-32
 Symmetry AU   KE= 0.000000000000D+00
 Symmetry B1U  KE= 3.488422226698D+00
 Symmetry B2U  KE= 4.543764897291D+00
 Symmetry B3U  KE= 4.543764897291D+00

 Test job not archived.
 1\1\GINC-COMPUTE0-2-11\FOpt\RB3LYP\def2SVPP\H2O1\ROOT\07-Jan-2020\0\\#
  b3lyp/Def2SVPP opt=(MaxCycles=300) int(grid=ultrafine) IOP(3/36=4) sc
 f=(xqc,tight)\\Comment gs min\\0,1\H,-0.6630665512,-0.6630665512,0.\O,
 0.,0.,0.\H,0.6630665512,0.6630665512,0.\\Version=EM64L-G16RevB.01\Stat
 e=1-SGG\HF=-76.2898842\RMSD=4.035e-09\RMSF=5.635e-05\Dipole=0.,0.,0.\Q
 uadrupole=0.5974368,0.5974368,-1.1948736,1.7923104,0.,0.\PG=D*H [O(O1)
 ,C*(H1.H1)]\\@


      HUMANKIND PERIODICALLY GOES THROUGH A SPEEDUP OF ITS AFFAIRS, 
      THEREBY EXPERIENCING THE RACE BETWEEN THE RENEWABLE VITALITY
      OF THE LIVING, AND THE BECKONING VITIATION OF DECADENCE.
      IN THIS PERIODIC RACE, ANY PAUSE BECOMES A LUXURY.
      ONLY THEN CAN ONE REFLECT THAT ALL IS PERMITTED;
      ALL IS POSSIBLE.

                              -- THE APOCRYPHA OF MUAD'DIB
                                 CHILDREN OF DUNE, BY FRANK HERBERT
 Job cpu time:       0 days  0 hours  0 minutes 10.4 seconds.
 Elapsed time:       0 days  0 hours  0 minutes 10.3 seconds.
 File lengths (MBytes):  RWF=     17 Int=      0 D2E=      0 Chk=      2 Scr=      2
 Normal termination of Gaussian 16 at Tue Jan  7 16:03:26 2020.
