Process 0 of 1 is on holy2a21202.rc.fas.harvard.edu - thread support 0
initial socket setup ...start
initial socket setup ...done 
now start server 0 ... 
                  Welcome to Q-Chem
     A Quantum Leap Into The Future Of Chemistry


 Q-Chem 4.2, Q-Chem, Inc., Pleasanton, CA (2014).

 Y. Shao,  Z. Gan,  E. Epifanovsky,  A. T. B. Gilbert,  M. Wormit,  
 J. Kussmann,  A. W. Lange,  A. Behn,  J. Deng,  X. Feng,  D. Ghosh,  
 M. Goldey,  P. R. Horn,  L. D. Jacobson,  I. Kaliman,  R. Z. Khaliullin,  
 T. Kus,  A. Landau,  J. Liu,  E. I. Proynov,  Y. M. Rhee,  R. M. Richard,  
 M. A. Rohrdanz,  R. P. Steele,  E. J. Sundstrom,  H. L. Woodcock III,  
 P. M. Zimmerman,  D. Zuev,  B. Albrecht,  E. Alguire,  B. Austin,  
 G. J. O. Beran,  Y. A. Bernard,  E. Berquist,  K. Brandhorst,  
 K. B. Bravaya,  S. T. Brown,  D. Casanova,  C.-M. Chang,  Y. Chen,  
 S. H. Chien,  K. D. Closser,  D. L. Crittenden,  M. Diedenhofen,  
 R. A. DiStasio Jr.,  H. Do,  A. D. Dutoi,  R. G. Edgar,  S. Fatehi,  
 L. Fusti-Molnar,  A. Ghysels,  A. Golubeva-Zadorozhnaya,  J. Gomes,  
 M. W. D. Hanson-Heine,  P. H. P. Harbach,  A. W. Hauser,  E. G. Hohenstein,  
 Z. C. Holden,  T.-C. Jagau,  H. Ji,  B. Kaduk,  K. Khistyaev,  Jaehoon Kim,  
 Jihan Kim,  R. A. King,  P. Klunzinger,  D. Kosenkov,  T. Kowalczyk,  
 C. M. Krauter,  K. U. Lao,  A. Laurent,  K. V. Lawler,  S. V. Levchenko,  
 C. Y. Lin,  F. Liu,  E. Livshits,  R. C. Lochan,  A. Luenser,  P. Manohar,  
 S. F. Manzer,  S.-P. Mao,  N. Mardirossian,  A. V. Marenich,  S. A. Maurer,  
 N. J. Mayhall,  C. M. Oana,  R. Olivares-Amaya,  D. P. O'Neill,  
 J. A. Parkhill,  T. M. Perrine,  R. Peverati,  P. A. Pieniazek,  A. Prociuk,  
 D. R. Rehn,  E. Rosta,  N. J. Russ,  N. Sergueev,  S. M. Sharada,  
 S. Sharma,  D. W. Small,  A. Sodt,  T. Stein,  D. Stuck,  Y.-C. Su,  
 A. J. W. Thom,  T. Tsuchimochi,  L. Vogt,  O. Vydrov,  T. Wang,  
 M. A. Watson,  J. Wenzel,  A. White,  C. F. Williams,  V. Vanovschi,  
 S. Yeganeh,  S. R. Yost,  Z.-Q. You,  I. Y. Zhang,  X. Zhang,  Y. Zhao,  
 B. R. Brooks,  G. K. L. Chan,  D. M. Chipman,  C. J. Cramer,  
 W. A. Goddard III,  M. S. Gordon,  W. J. Hehre,  A. Klamt,  
 H. F. Schaefer III,  M. W. Schmidt,  C. D. Sherrill,  D. G. Truhlar,  
 A. Warshel,  X. Xu,  A. Aspuru-Guzik,  R. Baer,  A. T. Bell,  N. A. Besley,  
 J.-D. Chai,  A. Dreuw,  B. D. Dunietz,  T. R. Furlani,  S. R. Gwaltney,  
 C.-P. Hsu,  Y. Jung,  J. Kong,  D. S. Lambrecht,  W. Liang,  C. Ochsenfeld,  
 V. A. Rassolov,  L. V. Slipchenko,  J. E. Subotnik,  T. Van Voorhis,  
 J. M. Herbert,  A. I. Krylov,  P. M. W. Gill,  M. Head-Gordon

 Contributors to earlier versions of Q-Chem not listed above: 
 R. D. Adamson,  J. Baker,  E. F. C. Byrd,  A. K. Chakraborty,  C.-L. Cheng,  
 H. Dachsel,  R. J. Doerksen,  G. Hawkins,  A. Heyden,  S. Hirata,  
 G. Kedziora,  F. J. Keil,  C. Kelley,  P. P. Korambath,  W. Kurlancheek,  
 A. M. Lee,  M. S. Lee,  D. Liotard,  I. Lotan,  P. E. Maslen,  N. Nair,  
 D. Neuhauser,  R. Olson,  B. Peters,  J. Ritchie,  N. E. Schultz,  
 N. Shenvi,  A. C. Simmonett,  K. S. Thanthiriwatte,  Q. Wu,  W. Zhang

 Q-Chem 4.2.0 for Intel X86 EM64T Linux

 Parts of Q-Chem use Armadillo 4.100.2 (Dirt Cruiser).
 http://arma.sourceforge.net/

 Q-Chem begins on Tue Jul 19 15:15:57 2016  

holy2a21202.rc.fas.harvard.edu
Host: 0

     Scratch files written to /scratch/qchem25325//
 Jun314 |n|home06|pkrastev|src|QCHEM|4.2|qchem_trunk|trunk|libmdc|qstr_info.C -1
 Parallel job on  1  processors
Finally everything over in PARseQInput

--------------------------------------------------------------
User input:
--------------------------------------------------------------
$molecule
   READ coord.xyz
$end

$rem
MEM_TOTAL 12000
MEM_STATIC 2500
JOBTYPE OPT
GEOM_OPT_MAX_CYCLES 200
GEOM_OPT_PRINT 2

SYMMETRY FALSE

!BP86
EXCHANGE B
CORRELATION P86

BASIS 6-31G*
PURECART 1111

SCF_GUESS CORE

XC_GRID 1
MAX_SCF_CYCLES 200

PRINT_ORBITALS FALSE
SCF_PRINT 1
SCF_FINAL_PRINT 1
POP_MULLIKEN 0

$end
--------------------------------------------------------------
 ----------------------------------------------------------------
             Standard Nuclear Orientation (Angstroms)
    I     Atom           X                Y                Z
 ----------------------------------------------------------------
    1      C       1.0859296957    -0.2564688811     0.0000268409
    2      N       0.6883831403     0.9940683093    -0.0000146831
    3      N      -0.6883996818     0.9940536936     0.0000076881
    4      C      -1.0859230199    -0.2564743329    -0.0000179074
    5      N       0.0000296954    -1.0770991863    -0.0000143200
    6      H       2.1078175309    -0.6066465530     0.0000084234
    7      H      -2.1078916966    -0.6066832717     0.0000955990
    8      H      -0.0000579666    -2.0861706071    -0.0000084183
 ----------------------------------------------------------------
 Molecular Point Group                 C1    NOp =  1
 Largest Abelian Subgroup              C1    NOp =  1
 Nuclear Repulsion Energy =   164.9621933696 hartrees
 There are       18 alpha and       18 beta electrons

 Q-Chem warning in module /n/home06/pkrastev/src/QCHEM/4.2/qchem_trunk/trunk/forms1/BasisType.C, line 1231:

 You are not using the predefined 5D/6D in this basis set.

 Requested basis set is 6-31G(d)
 There are 26 shells and 76 basis functions

Total QAlloc Memory Limit  12000 MB
Mega-Array Size      2444 MB
MEM_STATIC part      2500 MB
 A cutoff of  1.0D-11 yielded    346 shell pairs
 There are      3031 function pairs (      3451 Cartesian)
 Smallest overlap matrix eigenvalue = 3.56E-03

  Scale SEOQF with 1.000000e-01/1.000000e-01/1.000000e+00

 Standard Electronic Orientation quadrupole field applied
 Nucleus-field energy     =     0.0000000030 hartrees
 Guess MOs from core Hamiltonian diagonalization
 A restricted Kohn-Sham SCF calculation will be
 performed using Pulay DIIS extrapolation
 Exchange:  Becke88      Correlation:  Perdew '86
 Using SG-1 standard quadrature grid
 SCF converges when DIIS error is below 1.0E-08
 Maximum number of SCF iterations = 200
 using 8 threads for integral computing 

 -------------------------------------------------------
 OpenMP Integral Computing Module                       
 Release: version 1.0, May 2013, Q-Chem Inc. Pittsburgh 
 -------------------------------------------------------
 Integral Job Info:
 Integral job number is                      20
 Integral operator is                         1
 short-range coefficients               -999999
 long-range coefficients                -999999
 Omega coefficients                           0
 if combine SR and LR in K              -999999
 Integral screening is                        1
 Integral computing path is                   2
 max size of driver memory is            800000
 size of driver memory is                593606
 size of scratch memory is               800000
 max col of scratch BK array               1296
 max len of scratch array in speh3          155
 max len of scratch index in speh4           18
 max int batch size is                       50
 min int batch size is                       15
 fixed nKL is                                18
 max L of basis functions is                  2
 order of int derivative is                   0
 number of shells is                         26
 number of basis is                          81
 number of cartesian basis is                81
 number of contracted shell pairs           346
 number of primitive shell pairs           1642
 maxK2 (contraction) of shell pair           36
 max number of K2 of shell pair               1
 max number of CS2 of shell pair             35
 max number of PS2 of shell pair            210
 mem total for path MDJ                   21832
 -------------------------------------------------------
         cpu   0.63 wall   0.16
 -------------------------------------------------------
 OpenMP BLAS3 based DFT computing Module                
 Release: version 1.0, May 2013, Q-Chem Inc. Pittsburgh 
 -------------------------------------------------------
in dftxc.C, eleTot sum is:36.000023, tauTot is:0.000000
 One-Electron    Energy =  -698.3114370561
 Total Coulomb   Energy =   359.6581537342
 Alpha Exchange  Energy =     0.0000000000
 Beta  Exchange  Energy =     0.0000000000
 DFT   Exchange  Energy =   -38.3277734409
 DFT Correlation Energy =    -1.4714016347
 Kinetic         Energy =   293.8614713121
 Nuclear Repu.   Energy =   164.9621933727
 Nuclear Attr.   Energy =  -992.1729083682
 ---------------------------------------
  Cycle       Energy         DIIS Error
 ---------------------------------------
    1    -213.4902650249      1.40E-01
         cpu   0.38 wall   0.05
in dftxc.C, eleTot sum is:36.000570, tauTot is:0.000000
 One-Electron    Energy =  -550.7098201538
 Total Coulomb   Energy =   208.3280783018
 Alpha Exchange  Energy =     0.0000000000
 Beta  Exchange  Energy =     0.0000000000
 DFT   Exchange  Energy =   -28.0931596564
 DFT Correlation Energy =    -1.2240335597
 Kinetic         Energy =   217.4293483964
 Nuclear Repu.   Energy =   164.9621933727
 Nuclear Attr.   Energy =  -768.1391685501
    2    -206.7367416953      1.48E-01
         cpu   0.38 wall   0.05
in dftxc.C, eleTot sum is:36.000013, tauTot is:0.000000
 One-Electron    Energy =  -661.0878312313
 Total Coulomb   Energy =   290.3775453461
 Alpha Exchange  Energy =     0.0000000000
 Beta  Exchange  Energy =     0.0000000000
 DFT   Exchange  Energy =   -32.2356540953
 DFT Correlation Energy =    -1.3530935507
 Kinetic         Energy =   246.3200496474
 Nuclear Repu.   Energy =   164.9621933727
 Nuclear Attr.   Energy =  -907.4078808787
    3    -239.3368401586      5.95E-02
         cpu   0.38 wall   0.05
in dftxc.C, eleTot sum is:35.999956, tauTot is:0.000000
 One-Electron    Energy =  -647.9306637951
 Total Coulomb   Energy =   283.5204314195
 Alpha Exchange  Energy =     0.0000000000
 Beta  Exchange  Energy =     0.0000000000
 DFT   Exchange  Energy =   -31.6539841279
 DFT Correlation Energy =    -1.3425718045
 Kinetic         Energy =   242.6546285462
 Nuclear Repu.   Energy =   164.9621933727
 Nuclear Attr.   Energy =  -890.5852923412
    4    -232.4445949353      1.05E-01
         cpu   0.38 wall   0.05
in dftxc.C, eleTot sum is:35.999846, tauTot is:0.000000
 One-Electron    Energy =  -654.6379296824
 Total Coulomb   Energy =   280.2975112378
 Alpha Exchange  Energy =     0.0000000000
 Beta  Exchange  Energy =     0.0000000000
 DFT   Exchange  Energy =   -31.4427671744
 DFT Correlation Energy =    -1.3300659276
 Kinetic         Energy =   240.8632353222
 Nuclear Repu.   Energy =   164.9621933727
 Nuclear Attr.   Energy =  -895.5011650045
    5    -242.1510581739      1.06E-02
         cpu   0.37 wall   0.05
in dftxc.C, eleTot sum is:35.999903, tauTot is:0.000000
 One-Electron    Energy =  -654.3444864770
 Total Coulomb   Energy =   279.9640388490
 Alpha Exchange  Energy =     0.0000000000
 Beta  Exchange  Energy =     0.0000000000
 DFT   Exchange  Energy =   -31.3774944697
 DFT Correlation Energy =    -1.3322736431
 Kinetic         Energy =   240.6517029541
 Nuclear Repu.   Energy =   164.9621933727
 Nuclear Attr.   Energy =  -894.9961894311
    6    -242.1280223681      1.33E-02
         cpu   0.38 wall   0.05
in dftxc.C, eleTot sum is:35.999865, tauTot is:0.000000
 One-Electron    Energy =  -654.0736893560
 Total Coulomb   Energy =   279.6059600884
 Alpha Exchange  Energy =     0.0000000000
 Beta  Exchange  Energy =     0.0000000000
 DFT   Exchange  Energy =   -31.4054707773
 DFT Correlation Energy =    -1.3279019742
 Kinetic         Energy =   240.8368535693
 Nuclear Repu.   Energy =   164.9621933727
 Nuclear Attr.   Energy =  -894.9105429254
    7    -242.2389086464      2.27E-03
         cpu   0.38 wall   0.05
in dftxc.C, eleTot sum is:35.999866, tauTot is:0.000000
 One-Electron    Energy =  -653.9284695054
 Total Coulomb   Energy =   279.4385475144
 Alpha Exchange  Energy =     0.0000000000
 Beta  Exchange  Energy =     0.0000000000
 DFT   Exchange  Energy =   -31.3845973450
 DFT Correlation Energy =    -1.3279490978
 Kinetic         Energy =   240.6923421987
 Nuclear Repu.   Energy =   164.9621933727
 Nuclear Attr.   Energy =  -894.6208117041
    8    -242.2402750611      1.78E-03
         cpu   0.38 wall   0.05
in dftxc.C, eleTot sum is:35.999867, tauTot is:0.000000
 One-Electron    Energy =  -653.9029914529
 Total Coulomb   Energy =   279.4046296740
 Alpha Exchange  Energy =     0.0000000000
 Beta  Exchange  Energy =     0.0000000000
 DFT   Exchange  Energy =   -31.3779676721
 DFT Correlation Energy =    -1.3281285858
 Kinetic         Energy =   240.6505490266
 Nuclear Repu.   Energy =   164.9621933727
 Nuclear Attr.   Energy =  -894.5535404795
    9    -242.2422646641      4.68E-04
         cpu   0.37 wall   0.05
in dftxc.C, eleTot sum is:35.999866, tauTot is:0.000000
 One-Electron    Energy =  -653.8869014096
 Total Coulomb   Energy =   279.3880100243
 Alpha Exchange  Energy =     0.0000000000
 Beta  Exchange  Energy =     0.0000000000
 DFT   Exchange  Energy =   -31.3776396244
 DFT Correlation Energy =    -1.3280897695
 Kinetic         Energy =   240.6516058127
 Nuclear Repu.   Energy =   164.9621933727
 Nuclear Attr.   Energy =  -894.5385072223
   10    -242.2424274065      1.50E-04
         cpu   0.56 wall   0.08
in dftxc.C, eleTot sum is:35.999866, tauTot is:0.000000
 One-Electron    Energy =  -653.8712509683
 Total Coulomb   Energy =   279.3711660762
 Alpha Exchange  Energy =     0.0000000000
 Beta  Exchange  Energy =     0.0000000000
 DFT   Exchange  Energy =   -31.3764890470
 DFT Correlation Energy =    -1.3280549081
 Kinetic         Energy =   240.6439188277
 Nuclear Repu.   Energy =   164.9621933727
 Nuclear Attr.   Energy =  -894.5151697961
   11    -242.2424354745      1.04E-04
         cpu   0.37 wall   0.05
in dftxc.C, eleTot sum is:35.999866, tauTot is:0.000000
 One-Electron    Energy =  -653.8622757758
 Total Coulomb   Energy =   279.3613663355
 Alpha Exchange  Energy =     0.0000000000
 Beta  Exchange  Energy =     0.0000000000
 DFT   Exchange  Energy =   -31.3756842265
 DFT Correlation Energy =    -1.3280431611
 Kinetic         Energy =   240.6385794541
 Nuclear Repu.   Energy =   164.9621933727
 Nuclear Attr.   Energy =  -894.5008552299
   12    -242.2424434552      1.69E-05
         cpu   0.37 wall   0.05
in dftxc.C, eleTot sum is:35.999866, tauTot is:0.000000
 One-Electron    Energy =  -653.8616579555
 Total Coulomb   Energy =   279.3606922966
 Alpha Exchange  Energy =     0.0000000000
 Beta  Exchange  Energy =     0.0000000000
 DFT   Exchange  Energy =   -31.3756268968
 DFT Correlation Energy =    -1.3280444619
 Kinetic         Energy =   240.6382700856
 Nuclear Repu.   Energy =   164.9621933727
 Nuclear Attr.   Energy =  -894.4999280411
   13    -242.2424436450      2.77E-06
         cpu   0.37 wall   0.05
in dftxc.C, eleTot sum is:35.999866, tauTot is:0.000000
 One-Electron    Energy =  -653.8611539961
 Total Coulomb   Energy =   279.3601275015
 Alpha Exchange  Energy =     0.0000000000
 Beta  Exchange  Energy =     0.0000000000
 DFT   Exchange  Energy =   -31.3755662426
 DFT Correlation Energy =    -1.3280442854
 Kinetic         Energy =   240.6378709328
 Nuclear Repu.   Energy =   164.9621933727
 Nuclear Attr.   Energy =  -894.4990249289
   14    -242.2424436498      2.39E-07
         cpu   0.38 wall   0.05
in dftxc.C, eleTot sum is:35.999866, tauTot is:0.000000
 One-Electron    Energy =  -653.8611403249
 Total Coulomb   Energy =   279.3601138212
 Alpha Exchange  Energy =     0.0000000000
 Beta  Exchange  Energy =     0.0000000000
 DFT   Exchange  Energy =   -31.3755663298
 DFT Correlation Energy =    -1.3280441890
 Kinetic         Energy =   240.6378696366
 Nuclear Repu.   Energy =   164.9621933727
 Nuclear Attr.   Energy =  -894.4990099615
   15    -242.2424436499      5.25E-08
         cpu   0.38 wall   0.05
in dftxc.C, eleTot sum is:35.999866, tauTot is:0.000000
 One-Electron    Energy =  -653.8611324011
 Total Coulomb   Energy =   279.3601051610
 Alpha Exchange  Energy =     0.0000000000
 Beta  Exchange  Energy =     0.0000000000
 DFT   Exchange  Energy =   -31.3755655990
 DFT Correlation Energy =    -1.3280441834
 Kinetic         Energy =   240.6378647642
 Nuclear Repu.   Energy =   164.9621933727
 Nuclear Attr.   Energy =  -894.4989971653
   16    -242.2424436499      7.09E-08
         cpu   0.37 wall   0.05
in dftxc.C, eleTot sum is:35.999866, tauTot is:0.000000
 One-Electron    Energy =  -653.8611381221
 Total Coulomb   Energy =   279.3601114692
 Alpha Exchange  Energy =     0.0000000000
 Beta  Exchange  Energy =     0.0000000000
 DFT   Exchange  Energy =   -31.3755661841
 DFT Correlation Energy =    -1.3280441855
 Kinetic         Energy =   240.6378688484
 Nuclear Repu.   Energy =   164.9621933727
 Nuclear Attr.   Energy =  -894.4990069705
   17    -242.2424436499      3.12E-08
         cpu   0.38 wall   0.05
in dftxc.C, eleTot sum is:35.999866, tauTot is:0.000000
 One-Electron    Energy =  -653.8611385907
 Total Coulomb   Energy =   279.3601120130
 Alpha Exchange  Energy =     0.0000000000
 Beta  Exchange  Energy =     0.0000000000
 DFT   Exchange  Energy =   -31.3755662618
 DFT Correlation Energy =    -1.3280441831
 Kinetic         Energy =   240.6378691777
 Nuclear Repu.   Energy =   164.9621933727
 Nuclear Attr.   Energy =  -894.4990077683
   18    -242.2424436499      1.01E-08
         cpu   0.39 wall   0.05
in dftxc.C, eleTot sum is:35.999866, tauTot is:0.000000
 One-Electron    Energy =  -653.8611376225
 Total Coulomb   Energy =   279.3601109253
 Alpha Exchange  Energy =     0.0000000000
 Beta  Exchange  Energy =     0.0000000000
 DFT   Exchange  Energy =   -31.3755661412
 DFT Correlation Energy =    -1.3280441841
 Kinetic         Energy =   240.6378684208
 Nuclear Repu.   Energy =   164.9621933727
 Nuclear Attr.   Energy =  -894.4990060434
   19    -242.2424436499      5.67E-10 Convergence criterion met
 ---------------------------------------
 One-Electron    Energy =  -653.8611376225
 Total Coulomb   Energy =   279.3601109253
 Alpha Exchange  Energy =     0.0000000000
 Beta  Exchange  Energy =     0.0000000000
 DFT   Exchange  Energy =   -31.3755661412
 DFT Correlation Energy =    -1.3280441841
 Nuclear Repu.   Energy =   164.9621933727
 Nuclear Attr.   Energy =  -894.4990060434
 Kinetic         Energy =   240.6378684208
 SCF time:  CPU 25.02 s  wall 14.81 s
 Final Alpha MO Eigenvalues
            1           2           3           4           5           6
    1 -14.0926834 -14.0235139 -14.0234653  -9.9695159  -9.9694970  -0.9814144
            7           8           9          10          11          12
    1  -0.8393072  -0.7379387  -0.5840443  -0.5688868  -0.5326303  -0.4229935
           13          14          15          16          17          18
    1  -0.4137757  -0.4116762  -0.2718394  -0.2626151  -0.2362032  -0.2041851
           19          20          21          22          23
    1  -0.0175431   0.0060001   0.0396493   0.0947769   0.1027004
 SCF   energy in the final basis set = -242.2424436499
 Total energy in the final basis set = -242.2424436499
 Analysis of SCF Wavefunction

 --------------------------------------------------------------
                    Orbital Energies (a.u.)
 --------------------------------------------------------------

 Alpha MOs
 -- Occupied --
-14.093 -14.024 -14.023  -9.970  -9.969  -0.981  -0.839  -0.738
 -0.584  -0.569  -0.533  -0.423  -0.414  -0.412  -0.272  -0.263
 -0.236  -0.204
 -- Virtual --
 -0.018   0.006   0.040   0.095   0.103   0.163   0.191   0.257
  0.281   0.366   0.483   0.497   0.518   0.528   0.539   0.600
  0.619   0.670   0.675   0.722   0.731   0.746   0.791   0.796
  0.835   0.846   0.888   0.985   1.135   1.180   1.211   1.240
  1.284   1.317   1.376   1.489   1.492   1.495   1.602   1.795
  1.908   1.956   1.985   2.044   2.110   2.186   2.203   2.237
  2.270   2.344   2.463   2.520   2.525   2.598   2.643   2.868
  2.935   2.944
 --------------------------------------------------------------

 -----------------------------------------------------------------
                    Cartesian Multipole Moments
 -----------------------------------------------------------------
    Charge (ESU x 10^10)
                 0.0000
    Dipole Moment (Debye)
         X      -0.0000      Y      -5.5335      Z       0.0001
       Tot       5.5335
    Quadrupole Moments (Debye-Ang)
        XX     -24.9183     XY       0.0002     YY     -27.9446
        XZ      -0.0002     YZ      -0.0001     ZZ     -29.4288
    Octopole Moments (Debye-Ang^2)
       XXX       0.0000    XXY      -8.2269    XYY      -0.0004
       YYY     -21.7963    XXZ       0.0005    XYZ       0.0002
       YYZ       0.0000    XZZ       0.0002    YZZ      -0.2958
       ZZZ       0.0000
    Hexadecapole Moments (Debye-Ang^3)
      XXXX    -137.8955   XXXY       0.0004   XXYY     -56.6217
      XYYY       0.0007   YYYY    -132.3970   XXXZ      -0.0012
      XXYZ      -0.0003   XYYZ      -0.0000   YYYZ       0.0001
      XXZZ     -33.9256   XYZZ      -0.0001   YYZZ     -30.5535
      XZZZ      -0.0002   YZZZ      -0.0000   ZZZZ     -26.7260
 -----------------------------------------------------------------
 Mayer SCF Bond Order, atomic valence on the diagonal:

            1           2           3           4           5           6
    1   3.7362441   1.5768523   0.0180723   0.0668670   1.1467978   0.9184655
    2   1.5768523   2.9737687   1.2627464   0.0180770   0.0876608  -0.0052951
    3   0.0180723   1.2627464   2.9737851   1.5768915   0.0876509   0.0133835
    4   0.0668670   0.0180770   1.5768915   3.7362434   1.1467652   0.0097282
    5   1.1467978   0.0876608   0.0876509   1.1467652   3.2691544  -0.0077697
    6   0.9184655  -0.0052951   0.0133835   0.0097282  -0.0077697   0.9297704
    7   0.0097281   0.0133876  -0.0052911   0.9184575  -0.0077626   0.0010576
    8  -0.0005388   0.0203396   0.0203315  -0.0005431   0.8158120   0.0002004
            7           8
    1   0.0097281  -0.0005388
    2   0.0133876   0.0203396
    3  -0.0052911   0.0203315
    4   0.9184575  -0.0005431
    5  -0.0077626   0.8158120
    6   0.0010576   0.0002004
    7   0.9297777   0.0002006
    8   0.0002006   0.8558021


 Calculating analytic gradient of the SCF energy
         cpu   0.77 wall   0.19
in dftxc.C, eleTot sum is:35.999866, tauTot is:0.000000
 Gradient of SCF Energy
            1           2           3           4           5           6
    1  -0.0024468  -0.0084218   0.0084191   0.0024829   0.0000359  -0.0062031
    2   0.0007062  -0.0163828  -0.0163931   0.0007407   0.0176215   0.0021733
    3   0.0000089  -0.0000068   0.0000047  -0.0000061  -0.0000036  -0.0000002
            7           8
    1   0.0061429  -0.0000090
    2   0.0021570   0.0093773
    3   0.0000035  -0.0000005
 Max gradient component =       1.762E-02
 RMS gradient           =       7.001E-03
 Gradient time:  CPU 2.70 s  wall 4.81 s
 Geometry Optimization Parameters
   NAtoms,    NIC,     NZ,  NCons,   NDum,   NFix, NCnnct, MaxDiis
        8      48       0       0       0       0       0       0


** GEOMETRY OPTIMIZATION IN DELOCALIZED INTERNAL COORDINATES **
   Searching for a Minimum

   Optimization Cycle:   1

                       Coordinates (Angstroms)
     ATOM                X               Y               Z
      1  C         1.0859296957   -0.2564688811    0.0000268409
      2  N         0.6883831403    0.9940683093   -0.0000146831
      3  N        -0.6883996818    0.9940536936    0.0000076881
      4  C        -1.0859230199   -0.2564743329   -0.0000179074
      5  N         0.0000296954   -1.0770991863   -0.0000143200
      6  H         2.1078175309   -0.6066465530    0.0000084234
      7  H        -2.1078916966   -0.6066832717    0.0000955990
      8  H        -0.0000579666   -2.0861706071   -0.0000084183
   Point Group: c1    Number of degrees of freedom:    18


   Energy is   -242.242443650


 Attempting to Generate Delocalized Internal Coordinates
 GETINT wrote B to file, NVib is           18
 calling HSSCONV
 HCONV 3*NATOMS:           24
 wrote HINT to file
  writing hessian 

 18 Hessian modes will be used to form the next step
  Hessian Eigenvalues:
     0.020736    0.020788    0.022275    0.023443    0.023483    0.160000
     0.160000    0.160000    0.221692    0.238551    0.359571    0.359675
     0.454789    0.461284    0.493949    0.513453    0.589758    0.634832

 Minimum Search - Taking Simple RFO Step
 Searching for Lamda that Minimizes Along All modes
 Value Taken    Lamda =  -0.00274334
 Step Taken.  Stepsize is  0.081964

                             Maximum     Tolerance    Cnvgd?
         Gradient           0.032025      0.000300      NO
         Displacement       0.066680      0.001200      NO
         Energy change     *********      0.000001      NO


 New Cartesian Coordinates Obtained by Inverse Iteration

 Displacement from previous Coordinates is:  0.091680
 ----------------------------------------------------------------
             Standard Nuclear Orientation (Angstroms)
    I     Atom           X                Y                Z
 ----------------------------------------------------------------
    1      C       1.0854560692    -0.2531194827    -0.0000136271
    2      N       0.6935596912     1.0130376492     0.0000495244
    3      N      -0.6935933509     1.0130310525    -0.0000080857
    4      C      -1.0854782038    -0.2531211131     0.0000095542
    5      N      -0.0000014451    -1.0972197838     0.0000239731
    6      H       2.1174100978    -0.6035131392    -0.0000425342
    7      H      -2.1174251060    -0.6035309267     0.0000362235
    8      H      -0.0000400550    -2.1169850853     0.0000281944
 ----------------------------------------------------------------
 Molecular Point Group                 C1    NOp =  1
 Largest Abelian Subgroup              C1    NOp =  1
 Nuclear Repulsion Energy =   163.3829237676 hartrees
 There are       18 alpha and       18 beta electrons
 Applying Cartesian multipole field
    Component          Value
    ---------          -----
     (2,0,0)        1.00000E-11
     (0,2,0)        2.00000E-11
     (0,0,2)       -3.00000E-10
 Nucleus-field energy     =     0.0000000031 hartrees
 Requested basis set is 6-31G(d)
 There are 26 shells and 76 basis functions
 A cutoff of  1.0D-11 yielded    346 shell pairs
 There are      3031 function pairs (      3451 Cartesian)
 Smallest overlap matrix eigenvalue = 3.77E-03
 Guess MOs from SCF MO coefficient file
Reading MOs from coefficient file
Reading MOs from coefficient file
 A restricted Kohn-Sham SCF calculation will be
 performed using Pulay DIIS extrapolation
 Exchange:  Becke88      Correlation:  Perdew '86
 Using SG-1 standard quadrature grid
 SCF converges when DIIS error is below 1.0E-08
 Maximum number of SCF iterations = 200
Geometry optimization detected.  Setting ReadMinima to 0
Setting SaveMinima to 0
 using 8 threads for integral computing 
         cpu   0.37 wall   0.05
 -------------------------------------------------------
 OpenMP BLAS3 based DFT computing Module                
 Release: version 1.0, May 2013, Q-Chem Inc. Pittsburgh 
 -------------------------------------------------------
in dftxc.C, eleTot sum is:35.951768, tauTot is:0.000000
 One-Electron    Energy =  -650.2143983837
 Total Coulomb   Energy =   277.2739690918
 Alpha Exchange  Energy =     0.0000000000
 Beta  Exchange  Energy =     0.0000000000
 DFT   Exchange  Energy =   -31.3183206987
 DFT Correlation Energy =    -1.3220741898
 Kinetic         Energy =   240.5078187114
 Nuclear Repu.   Energy =   163.3829237707
 Nuclear Attr.   Energy =  -890.7222170951
 ---------------------------------------
  Cycle       Energy         DIIS Error
 ---------------------------------------
    1    -242.1979004096      1.78E-03
         cpu   0.56 wall   0.08
in dftxc.C, eleTot sum is:35.999885, tauTot is:0.000000
 One-Electron    Energy =  -650.9348622407
 Total Coulomb   Energy =   277.9724564970
 Alpha Exchange  Energy =     0.0000000000
 Beta  Exchange  Energy =     0.0000000000
 DFT   Exchange  Energy =   -31.3383825917
 DFT Correlation Energy =    -1.3255412037
 Kinetic         Energy =   240.5038969383
 Nuclear Repu.   Energy =   163.3829237707
 Nuclear Attr.   Energy =  -891.4387591790
    2    -242.2434057684      6.63E-04
         cpu   0.37 wall   0.05
in dftxc.C, eleTot sum is:35.999884, tauTot is:0.000000
 One-Electron    Energy =  -650.6502679797
 Total Coulomb   Energy =   277.6725536281
 Alpha Exchange  Energy =     0.0000000000
 Beta  Exchange  Energy =     0.0000000000
 DFT   Exchange  Energy =   -31.3234920666
 DFT Correlation Energy =    -1.3246327036
 Kinetic         Energy =   240.3977012334
 Nuclear Repu.   Energy =   163.3829237707
 Nuclear Attr.   Energy =  -891.0479692131
    3    -242.2429153511      1.08E-03
         cpu   0.37 wall   0.05
in dftxc.C, eleTot sum is:35.999883, tauTot is:0.000000
 One-Electron    Energy =  -650.6952177662
 Total Coulomb   Energy =   277.7162700558
 Alpha Exchange  Energy =     0.0000000000
 Beta  Exchange  Energy =     0.0000000000
 DFT   Exchange  Energy =   -31.3226347685
 DFT Correlation Energy =    -1.3249510988
 Kinetic         Energy =   240.4008298981
 Nuclear Repu.   Energy =   163.3829237707
 Nuclear Attr.   Energy =  -891.0960476643
    4    -242.2436098071      3.97E-04
         cpu   0.37 wall   0.05
in dftxc.C, eleTot sum is:35.999884, tauTot is:0.000000
 One-Electron    Energy =  -650.7694659549
 Total Coulomb   Energy =   277.7964326118
 Alpha Exchange  Energy =     0.0000000000
 Beta  Exchange  Energy =     0.0000000000
 DFT   Exchange  Energy =   -31.3285575499
 DFT Correlation Energy =    -1.3250527264
 Kinetic         Energy =   240.4391315331
 Nuclear Repu.   Energy =   163.3829237707
 Nuclear Attr.   Energy =  -891.2085974880
    5    -242.2437198488      3.67E-05
         cpu   0.38 wall   0.05
in dftxc.C, eleTot sum is:35.999884, tauTot is:0.000000
 One-Electron    Energy =  -650.7697142371
 Total Coulomb   Energy =   277.7968407108
 Alpha Exchange  Energy =     0.0000000000
 Beta  Exchange  Energy =     0.0000000000
 DFT   Exchange  Energy =   -31.3287273430
 DFT Correlation Energy =    -1.3250434297
 Kinetic         Energy =   240.4402947008
 Nuclear Repu.   Energy =   163.3829237707
 Nuclear Attr.   Energy =  -891.2100089379
    6    -242.2437205283      2.25E-05
         cpu   0.38 wall   0.05
in dftxc.C, eleTot sum is:35.999884, tauTot is:0.000000
 One-Electron    Energy =  -650.7660986649
 Total Coulomb   Energy =   277.7928454435
 Alpha Exchange  Energy =     0.0000000000
 Beta  Exchange  Energy =     0.0000000000
 DFT   Exchange  Energy =   -31.3283487668
 DFT Correlation Energy =    -1.3250426176
 Kinetic         Energy =   240.4377904027
 Nuclear Repu.   Energy =   163.3829237707
 Nuclear Attr.   Energy =  -891.2038890676
    7    -242.2437208352      2.92E-06
         cpu   0.38 wall   0.05
in dftxc.C, eleTot sum is:35.999884, tauTot is:0.000000
 One-Electron    Energy =  -650.7669930725
 Total Coulomb   Energy =   277.7938215673
 Alpha Exchange  Energy =     0.0000000000
 Beta  Exchange  Energy =     0.0000000000
 DFT   Exchange  Energy =   -31.3284291594
 DFT Correlation Energy =    -1.3250439480
 Kinetic         Energy =   240.4383203045
 Nuclear Repu.   Energy =   163.3829237707
 Nuclear Attr.   Energy =  -891.2053133771
    8    -242.2437208419      1.65E-07
         cpu   0.38 wall   0.05
in dftxc.C, eleTot sum is:35.999884, tauTot is:0.000000
 One-Electron    Energy =  -650.7669880025
 Total Coulomb   Energy =   277.7938149970
 Alpha Exchange  Energy =     0.0000000000
 Beta  Exchange  Energy =     0.0000000000
 DFT   Exchange  Energy =   -31.3284276575
 DFT Correlation Energy =    -1.3250439496
 Kinetic         Energy =   240.4383093631
 Nuclear Repu.   Energy =   163.3829237707
 Nuclear Attr.   Energy =  -891.2052973656
    9    -242.2437208419      1.10E-07
         cpu   0.38 wall   0.05
in dftxc.C, eleTot sum is:35.999884, tauTot is:0.000000
 One-Electron    Energy =  -650.7669886657
 Total Coulomb   Energy =   277.7938157145
 Alpha Exchange  Energy =     0.0000000000
 Beta  Exchange  Energy =     0.0000000000
 DFT   Exchange  Energy =   -31.3284277109
 DFT Correlation Energy =    -1.3250439505
 Kinetic         Energy =   240.4383098433
 Nuclear Repu.   Energy =   163.3829237707
 Nuclear Attr.   Energy =  -891.2052985090
   10    -242.2437208419      5.02E-08
         cpu   0.38 wall   0.05
in dftxc.C, eleTot sum is:35.999884, tauTot is:0.000000
 One-Electron    Energy =  -650.7669899581
 Total Coulomb   Energy =   277.7938171562
 Alpha Exchange  Energy =     0.0000000000
 Beta  Exchange  Energy =     0.0000000000
 DFT   Exchange  Energy =   -31.3284278592
 DFT Correlation Energy =    -1.3250439514
 Kinetic         Energy =   240.4383109506
 Nuclear Repu.   Energy =   163.3829237707
 Nuclear Attr.   Energy =  -891.2053009088
   11    -242.2437208419      3.28E-09 Convergence criterion met
 ---------------------------------------
 One-Electron    Energy =  -650.7669899581
 Total Coulomb   Energy =   277.7938171562
 Alpha Exchange  Energy =     0.0000000000
 Beta  Exchange  Energy =     0.0000000000
 DFT   Exchange  Energy =   -31.3284278592
 DFT Correlation Energy =    -1.3250439514
 Nuclear Repu.   Energy =   163.3829237707
 Nuclear Attr.   Energy =  -891.2053009088
 Kinetic         Energy =   240.4383109506
 SCF time:  CPU 14.50 s  wall 7.37 s
 Final Alpha MO Eigenvalues
            1           2           3           4           5           6
    1 -14.0957932 -14.0274893 -14.0274357  -9.9732612  -9.9732461  -0.9724976
            7           8           9          10          11          12
    1  -0.8372029  -0.7324100  -0.5833233  -0.5653735  -0.5287351  -0.4212732
           13          14          15          16          17          18
    1  -0.4078888  -0.4067170  -0.2720202  -0.2644545  -0.2341011  -0.2087768
           19          20          21          22          23
    1  -0.0223910   0.0013758   0.0342385   0.0914174   0.0998899
 SCF   energy in the final basis set = -242.2437208419
 Total energy in the final basis set = -242.2437208419
 Analysis of SCF Wavefunction

 --------------------------------------------------------------
                    Orbital Energies (a.u.)
 --------------------------------------------------------------

 Alpha MOs
 -- Occupied --
-14.096 -14.027 -14.027  -9.973  -9.973  -0.972  -0.837  -0.732
 -0.583  -0.565  -0.529  -0.421  -0.408  -0.407  -0.272  -0.264
 -0.234  -0.209
 -- Virtual --
 -0.022   0.001   0.034   0.091   0.100   0.154   0.188   0.252
  0.276   0.355   0.485   0.488   0.516   0.529   0.536   0.600
  0.612   0.669   0.675   0.720   0.730   0.741   0.777   0.794
  0.833   0.842   0.886   0.980   1.136   1.176   1.202   1.243
  1.284   1.315   1.389   1.481   1.488   1.489   1.585   1.777
  1.884   1.922   1.978   2.028   2.093   2.187   2.192   2.203
  2.252   2.331   2.457   2.503   2.519   2.588   2.620   2.839
  2.906   2.931
 --------------------------------------------------------------

 -----------------------------------------------------------------
                    Cartesian Multipole Moments
 -----------------------------------------------------------------
    Charge (ESU x 10^10)
                 0.0000
    Dipole Moment (Debye)
         X      -0.0000      Y      -5.5467      Z      -0.0000
       Tot       5.5467
    Quadrupole Moments (Debye-Ang)
        XX     -25.0665     XY       0.0002     YY     -27.8115
        XZ      -0.0002     YZ      -0.0001     ZZ     -29.5889
    Octopole Moments (Debye-Ang^2)
       XXX       0.0011    XXY      -8.3312    XYY       0.0001
       YYY     -22.8562    XXZ      -0.0004    XYZ       0.0000
       YYZ      -0.0003    XZZ       0.0004    YZZ      -0.3721
       ZZZ      -0.0011
    Hexadecapole Moments (Debye-Ang^3)
      XXXX    -139.3133   XXXY       0.0005   XXYY     -57.7412
      XYYY       0.0009   YYYY    -134.7198   XXXZ      -0.0007
      XXYZ      -0.0002   XYYZ      -0.0003   YYYZ      -0.0008
      XXZZ     -34.2869   XYZZ       0.0000   YYZZ     -31.3813
      XZZZ       0.0000   YZZZ      -0.0002   ZZZZ     -26.9815
 -----------------------------------------------------------------
 Mayer SCF Bond Order, atomic valence on the diagonal:

            1           2           3           4           5           6
    1   3.7352784   1.5808202   0.0215042   0.0642952   1.1403958   0.9175344
    2   1.5808202   2.9631794   1.2463859   0.0215052   0.0852915  -0.0050044
    3   0.0215042   1.2463859   2.9631863   1.5808357   0.0852878   0.0141683
    4   0.0642952   0.0215052   1.5808357   3.7352821   1.1403852   0.0098511
    5   1.1403958   0.0852915   0.0852878   1.1403852   3.2488718  -0.0070300
    6   0.9175344  -0.0050044   0.0141683   0.0098511  -0.0070300   0.9308804
    7   0.0098506   0.0141690  -0.0050043   0.9175336  -0.0070295   0.0011713
    8   0.0008780   0.0200120   0.0200087   0.0008760   0.8115710   0.0001896
            7           8
    1   0.0098506   0.0008780
    2   0.0141690   0.0200120
    3  -0.0050043   0.0200087
    4   0.9175336   0.0008760
    5  -0.0070295   0.8115710
    6   0.0011713   0.0001896
    7   0.9308804   0.0001897
    8   0.0001897   0.8537250


 Calculating analytic gradient of the SCF energy
         cpu   0.68 wall   0.09
in dftxc.C, eleTot sum is:35.999884, tauTot is:0.000000
 Gradient of SCF Energy
            1           2           3           4           5           6
    1  -0.0029461  -0.0045200   0.0045184   0.0029386   0.0000120  -0.0000766
    2  -0.0016599   0.0026030   0.0025976  -0.0016523  -0.0010261  -0.0000965
    3  -0.0000103   0.0000148  -0.0000100  -0.0000004   0.0000052  -0.0000017
            7           8
    1   0.0000778  -0.0000040
    2  -0.0000961  -0.0006698
    3   0.0000014   0.0000010
 Max gradient component =       4.520E-03
 RMS gradient           =       1.811E-03
 Gradient time:  CPU 2.57 s  wall 1.53 s
 Geometry Optimization Parameters
   NAtoms,    NIC,     NZ,  NCons,   NDum,   NFix, NCnnct, MaxDiis
        8      48       0       0       0       0       0       0

 Cartesian Hessian Update
 Hessian Updated using BFGS Update


** GEOMETRY OPTIMIZATION IN DELOCALIZED INTERNAL COORDINATES **
   Searching for a Minimum

   Optimization Cycle:   2

                       Coordinates (Angstroms)
     ATOM                X               Y               Z
      1  C         1.0854560692   -0.2531194827   -0.0000136271
      2  N         0.6935596912    1.0130376492    0.0000495244
      3  N        -0.6935933509    1.0130310525   -0.0000080857
      4  C        -1.0854782038   -0.2531211131    0.0000095542
      5  N        -0.0000014451   -1.0972197838    0.0000239731
      6  H         2.1174100978   -0.6035131392   -0.0000425342
      7  H        -2.1174251060   -0.6035309267    0.0000362235
      8  H        -0.0000400550   -2.1169850853    0.0000281944
   Point Group: c1    Number of degrees of freedom:    18


   Energy is   -242.243720842

 GETINT wrote B to file, NVib is           18
 Hessian Updated using BFGS Update

 18 Hessian modes will be used to form the next step
  Hessian Eigenvalues:
     0.020736    0.020788    0.022275    0.023443    0.023483    0.159999
     0.160000    0.160002    0.238551    0.249904    0.353746    0.359623
     0.430267    0.465816    0.470583    0.493949    0.589758    0.696333

 Minimum Search - Taking Simple RFO Step
 Searching for Lamda that Minimizes Along All modes
 Value Taken    Lamda =  -0.00013376
 Step Taken.  Stepsize is  0.019207

                             Maximum     Tolerance    Cnvgd?
         Gradient           0.005197      0.000300      NO
         Displacement       0.014827      0.001200      NO
         Energy change     -0.001277      0.000001      NO


 New Cartesian Coordinates Obtained by Inverse Iteration

 Displacement from previous Coordinates is:  0.023297
 ----------------------------------------------------------------
             Standard Nuclear Orientation (Angstroms)
    I     Atom           X                Y                Z
 ----------------------------------------------------------------
    1      C       1.0904643889    -0.2533133507     0.0000321920
    2      N       0.6963028776     1.0108518228    -0.0000763876
    3      N      -0.6963339258     1.0108488121     0.0000512821
    4      C      -1.0904915999    -0.2533141688     0.0000238749
    5      N      -0.0000096084    -1.0943246064    -0.0000050154
    6      H       2.1227989188    -0.6041494946     0.0000212150
    7      H      -2.1228182643    -0.6041613111     0.0000556114
    8      H      -0.0000250896    -2.1138585325    -0.0000195498
 ----------------------------------------------------------------
 Molecular Point Group                 C1    NOp =  1
 Largest Abelian Subgroup              C1    NOp =  1
 Nuclear Repulsion Energy =   163.2277450405 hartrees
 There are       18 alpha and       18 beta electrons
 Applying Cartesian multipole field
    Component          Value
    ---------          -----
     (2,0,0)        1.00000E-11
     (0,2,0)        2.00000E-11
     (0,0,2)       -3.00000E-10
 Nucleus-field energy     =     0.0000000031 hartrees
 Requested basis set is 6-31G(d)
 There are 26 shells and 76 basis functions
 A cutoff of  1.0D-11 yielded    346 shell pairs
 There are      3031 function pairs (      3451 Cartesian)
 Smallest overlap matrix eigenvalue = 3.81E-03
 Guess MOs from SCF MO coefficient file
Reading MOs from coefficient file
Reading MOs from coefficient file
 A restricted Kohn-Sham SCF calculation will be
 performed using Pulay DIIS extrapolation
 Exchange:  Becke88      Correlation:  Perdew '86
 Using SG-1 standard quadrature grid
 SCF converges when DIIS error is below 1.0E-08
 Maximum number of SCF iterations = 200
Geometry optimization detected.  Setting ReadMinima to 0
Setting SaveMinima to 0
 using 8 threads for integral computing 
         cpu   0.37 wall   0.05
 -------------------------------------------------------
 OpenMP BLAS3 based DFT computing Module                
 Release: version 1.0, May 2013, Q-Chem Inc. Pittsburgh 
 -------------------------------------------------------
in dftxc.C, eleTot sum is:35.999600, tauTot is:0.000000
 One-Electron    Energy =  -650.4606613336
 Total Coulomb   Energy =   277.6419175375
 Alpha Exchange  Energy =     0.0000000000
 Beta  Exchange  Energy =     0.0000000000
 DFT   Exchange  Energy =   -31.3250583451
 DFT Correlation Energy =    -1.3246381588
 Kinetic         Energy =   240.4294477857
 Nuclear Repu.   Energy =   163.2277450436
 Nuclear Attr.   Energy =  -890.8901091193
 ---------------------------------------
  Cycle       Energy         DIIS Error
 ---------------------------------------
    1    -242.2406952564      4.79E-04
         cpu   0.38 wall   0.05
in dftxc.C, eleTot sum is:35.999884, tauTot is:0.000000
 One-Electron    Energy =  -650.4821350891
 Total Coulomb   Energy =   277.6614891604
 Alpha Exchange  Energy =     0.0000000000
 Beta  Exchange  Energy =     0.0000000000
 DFT   Exchange  Energy =   -31.3261557455
 DFT Correlation Energy =    -1.3246952903
 Kinetic         Energy =   240.4320563186
 Nuclear Repu.   Energy =   163.2277450436
 Nuclear Attr.   Energy =  -890.9141914076
    2    -242.2437519209      2.03E-04
         cpu   0.38 wall   0.05
in dftxc.C, eleTot sum is:35.999885, tauTot is:0.000000
 One-Electron    Energy =  -650.4438044648
 Total Coulomb   Energy =   277.6185253080
 Alpha Exchange  Energy =     0.0000000000
 Beta  Exchange  Energy =     0.0000000000
 DFT   Exchange  Energy =   -31.3214552828
 DFT Correlation Energy =    -1.3247347018
 Kinetic         Energy =   240.4017511452
 Nuclear Repu.   Energy =   163.2277450436
 Nuclear Attr.   Energy =  -890.8455556099
    3    -242.2437240977      2.93E-04
         cpu   0.39 wall   0.05
in dftxc.C, eleTot sum is:35.999885, tauTot is:0.000000
 One-Electron    Energy =  -650.4731637231
 Total Coulomb   Energy =   277.6516405714
 Alpha Exchange  Energy =     0.0000000000
 Beta  Exchange  Energy =     0.0000000000
 DFT   Exchange  Energy =   -31.3253042569
 DFT Correlation Energy =    -1.3246938109
 Kinetic         Energy =   240.4260203045
 Nuclear Repu.   Energy =   163.2277450436
 Nuclear Attr.   Energy =  -890.8991840276
    4    -242.2437761759      7.13E-05
         cpu   0.38 wall   0.05
in dftxc.C, eleTot sum is:35.999885, tauTot is:0.000000
 One-Electron    Energy =  -650.4699520661
 Total Coulomb   Energy =   277.6479656108
 Alpha Exchange  Energy =     0.0000000000
 Beta  Exchange  Energy =     0.0000000000
 DFT   Exchange  Energy =   -31.3248364704
 DFT Correlation Energy =    -1.3247012003
 Kinetic         Energy =   240.4234922636
 Nuclear Repu.   Energy =   163.2277450436
 Nuclear Attr.   Energy =  -890.8934443297
    5    -242.2437790824      3.54E-05
         cpu   0.38 wall   0.05
in dftxc.C, eleTot sum is:35.999885, tauTot is:0.000000
 One-Electron    Energy =  -650.4688536767
 Total Coulomb   Energy =   277.6467355122
 Alpha Exchange  Energy =     0.0000000000
 Beta  Exchange  Energy =     0.0000000000
 DFT   Exchange  Energy =   -31.3247060091
 DFT Correlation Energy =    -1.3247008786
 Kinetic         Energy =   240.4225427844
 Nuclear Repu.   Energy =   163.2277450436
 Nuclear Attr.   Energy =  -890.8913964611
    6    -242.2437800086      1.22E-06
         cpu   0.38 wall   0.05
in dftxc.C, eleTot sum is:35.999885, tauTot is:0.000000
 One-Electron    Energy =  -650.4693066487
 Total Coulomb   Energy =   277.6472226070
 Alpha Exchange  Energy =     0.0000000000
 Beta  Exchange  Energy =     0.0000000000
 DFT   Exchange  Energy =   -31.3247392520
 DFT Correlation Energy =    -1.3247017596
 Kinetic         Energy =   240.4227669424
 Nuclear Repu.   Energy =   163.2277450436
 Nuclear Attr.   Energy =  -890.8920735911
    7    -242.2437800097      3.68E-07
         cpu   0.39 wall   0.05
in dftxc.C, eleTot sum is:35.999885, tauTot is:0.000000
 One-Electron    Energy =  -650.4691714241
 Total Coulomb   Energy =   277.6470777797
 Alpha Exchange  Energy =     0.0000000000
 Beta  Exchange  Energy =     0.0000000000
 DFT   Exchange  Energy =   -31.3247299370
 DFT Correlation Energy =    -1.3247014720
 Kinetic         Energy =   240.4227027657
 Nuclear Repu.   Energy =   163.2277450436
 Nuclear Attr.   Energy =  -890.8918741898
    8    -242.2437800098      4.58E-08
         cpu   0.38 wall   0.05
in dftxc.C, eleTot sum is:35.999885, tauTot is:0.000000
 One-Electron    Energy =  -650.4692009931
 Total Coulomb   Energy =   277.6471098200
 Alpha Exchange  Energy =     0.0000000000
 Beta  Exchange  Energy =     0.0000000000
 DFT   Exchange  Energy =   -31.3247323661
 DFT Correlation Energy =    -1.3247015142
 Kinetic         Energy =   240.4227189302
 Nuclear Repu.   Energy =   163.2277450436
 Nuclear Attr.   Energy =  -890.8919199233
    9    -242.2437800098      6.01E-08
         cpu   0.37 wall   0.05
in dftxc.C, eleTot sum is:35.999885, tauTot is:0.000000
 One-Electron    Energy =  -650.4691845963
 Total Coulomb   Energy =   277.6470920595
 Alpha Exchange  Energy =     0.0000000000
 Beta  Exchange  Energy =     0.0000000000
 DFT   Exchange  Energy =   -31.3247310261
 DFT Correlation Energy =    -1.3247014904
 Kinetic         Energy =   240.4227099155
 Nuclear Repu.   Energy =   163.2277450436
 Nuclear Attr.   Energy =  -890.8918945118
   10    -242.2437800098      1.92E-08
         cpu   0.38 wall   0.05
in dftxc.C, eleTot sum is:35.999885, tauTot is:0.000000
 One-Electron    Energy =  -650.4691834104
 Total Coulomb   Energy =   277.6470908041
 Alpha Exchange  Energy =     0.0000000000
 Beta  Exchange  Energy =     0.0000000000
 DFT   Exchange  Energy =   -31.3247309599
 DFT Correlation Energy =    -1.3247014872
 Kinetic         Energy =   240.4227094739
 Nuclear Repu.   Energy =   163.2277450436
 Nuclear Attr.   Energy =  -890.8918928843
   11    -242.2437800098      4.57E-09 Convergence criterion met
 ---------------------------------------
 One-Electron    Energy =  -650.4691834104
 Total Coulomb   Energy =   277.6470908041
 Alpha Exchange  Energy =     0.0000000000
 Beta  Exchange  Energy =     0.0000000000
 DFT   Exchange  Energy =   -31.3247309599
 DFT Correlation Energy =    -1.3247014872
 Nuclear Repu.   Energy =   163.2277450436
 Nuclear Attr.   Energy =  -890.8918928843
 Kinetic         Energy =   240.4227094739
 SCF time:  CPU 13.99 s  wall 6.97 s
 Final Alpha MO Eigenvalues
            1           2           3           4           5           6
    1 -14.0951523 -14.0275135 -14.0274579  -9.9737797  -9.9737647  -0.9710644
            7           8           9          10          11          12
    1  -0.8350578  -0.7337607  -0.5816372  -0.5650813  -0.5285833  -0.4206443
           13          14          15          16          17          18
    1  -0.4093280  -0.4058739  -0.2706585  -0.2634666  -0.2350974  -0.2091875
           19          20          21          22          23
    1  -0.0223176   0.0008400   0.0351896   0.0900783   0.0981450
 SCF   energy in the final basis set = -242.2437800098
 Total energy in the final basis set = -242.2437800098
 Analysis of SCF Wavefunction

 --------------------------------------------------------------
                    Orbital Energies (a.u.)
 --------------------------------------------------------------

 Alpha MOs
 -- Occupied --
-14.095 -14.028 -14.027  -9.974  -9.974  -0.971  -0.835  -0.734
 -0.582  -0.565  -0.529  -0.421  -0.409  -0.406  -0.271  -0.263
 -0.235  -0.209
 -- Virtual --
 -0.022   0.001   0.035   0.090   0.098   0.152   0.187   0.252
  0.277   0.352   0.485   0.488   0.516   0.529   0.536   0.598
  0.611   0.670   0.675   0.720   0.729   0.741   0.778   0.794
  0.833   0.842   0.888   0.980   1.135   1.175   1.202   1.245
  1.283   1.315   1.386   1.483   1.485   1.488   1.589   1.774
  1.881   1.927   1.972   2.025   2.093   2.184   2.189   2.201
  2.253   2.328   2.456   2.501   2.519   2.589   2.622   2.836
  2.904   2.929
 --------------------------------------------------------------

 -----------------------------------------------------------------
                    Cartesian Multipole Moments
 -----------------------------------------------------------------
    Charge (ESU x 10^10)
                 0.0000
    Dipole Moment (Debye)
         X      -0.0000      Y      -5.5375      Z       0.0001
       Tot       5.5375
    Quadrupole Moments (Debye-Ang)
        XX     -24.9530     XY       0.0001     YY     -27.8861
        XZ       0.0001     YZ       0.0001     ZZ     -29.5994
    Octopole Moments (Debye-Ang^2)
       XXX       0.0011    XXY      -8.3864    XYY       0.0003
       YYY     -22.6856    XXZ       0.0002    XYZ       0.0002
       YYZ      -0.0003    XZZ       0.0004    YZZ      -0.3615
       ZZZ      -0.0005
    Hexadecapole Moments (Debye-Ang^3)
      XXXX    -139.6355   XXXY       0.0004   XXYY     -57.8047
      XYYY       0.0005   YYYY    -134.7437   XXXZ       0.0012
      XXYZ       0.0001   XYYZ       0.0010   YYYZ       0.0010
      XXZZ     -34.4518   XYZZ       0.0000   YYZZ     -31.3272
      XZZZ       0.0016   YZZZ       0.0006   ZZZZ     -26.9956
 -----------------------------------------------------------------
 Mayer SCF Bond Order, atomic valence on the diagonal:

            1           2           3           4           5           6
    1   3.7328513   1.5813438   0.0215715   0.0640710   1.1382138   0.9169381
    2   1.5813438   2.9616149   1.2431774   0.0215722   0.0861095  -0.0050163
    3   0.0215715   1.2431774   2.9616173   1.5813498   0.0861081   0.0142123
    4   0.0640710   0.0215722   1.5813498   3.7328528   1.1382094   0.0098442
    5   1.1382138   0.0861095   0.0861081   1.1382094   3.2470845  -0.0067464
    6   0.9169381  -0.0050163   0.0142123   0.0098442  -0.0067464   0.9305275
    7   0.0098439   0.0142125  -0.0050163   0.9169379  -0.0067465   0.0011025
    8   0.0008691   0.0202157   0.0202144   0.0008683   0.8119366   0.0001931
            7           8
    1   0.0098439   0.0008691
    2   0.0142125   0.0202157
    3  -0.0050163   0.0202144
    4   0.9169379   0.0008683
    5  -0.0067465   0.8119366
    6   0.0011025   0.0001931
    7   0.9305272   0.0001931
    8   0.0001931   0.8544905


 Calculating analytic gradient of the SCF energy
         cpu   0.68 wall   0.09
in dftxc.C, eleTot sum is:35.999885, tauTot is:0.000000
 Gradient of SCF Energy
            1           2           3           4           5           6
    1   0.0015069  -0.0017420   0.0017419  -0.0015125   0.0000045   0.0004221
    2  -0.0010379   0.0007666   0.0007639  -0.0010351   0.0008637  -0.0000465
    3   0.0000194  -0.0000248   0.0000175  -0.0000037  -0.0000075   0.0000015
            7           8
    1  -0.0004193  -0.0000016
    2  -0.0000461  -0.0002285
    3  -0.0000006  -0.0000017
 Max gradient component =       1.742E-03
 RMS gradient           =       7.933E-04
 Gradient time:  CPU 2.62 s  wall 1.17 s
 Geometry Optimization Parameters
   NAtoms,    NIC,     NZ,  NCons,   NDum,   NFix, NCnnct, MaxDiis
        8      48       0       0       0       0       0       0

 Cartesian Hessian Update
 Hessian Updated using BFGS Update


** GEOMETRY OPTIMIZATION IN DELOCALIZED INTERNAL COORDINATES **
   Searching for a Minimum

   Optimization Cycle:   3

                       Coordinates (Angstroms)
     ATOM                X               Y               Z
      1  C         1.0904643889   -0.2533133507    0.0000321920
      2  N         0.6963028776    1.0108518228   -0.0000763876
      3  N        -0.6963339258    1.0108488121    0.0000512821
      4  C        -1.0904915999   -0.2533141688    0.0000238749
      5  N        -0.0000096084   -1.0943246064   -0.0000050154
      6  H         2.1227989188   -0.6041494946    0.0000212150
      7  H        -2.1228182643   -0.6041613111    0.0000556114
      8  H        -0.0000250896   -2.1138585325   -0.0000195498
   Point Group: c1    Number of degrees of freedom:    18


   Energy is   -242.243780010

 GETINT wrote B to file, NVib is           18
 Hessian Updated using BFGS Update

 18 Hessian modes will be used to form the next step
  Hessian Eigenvalues:
     0.020738    0.020788    0.022276    0.023443    0.023483    0.160000
     0.160000    0.160240    0.238551    0.324244    0.359622    0.362907
     0.382530    0.461772    0.493949    0.501862    0.589758    0.626710

 Minimum Search - Taking Simple RFO Step
 Searching for Lamda that Minimizes Along All modes
 Value Taken    Lamda =  -0.00001654
 Step Taken.  Stepsize is  0.006542

                             Maximum     Tolerance    Cnvgd?
         Gradient           0.001360      0.000300      NO
         Displacement       0.003374      0.001200      NO
         Energy change     -0.000059      0.000001      NO


 New Cartesian Coordinates Obtained by Inverse Iteration

 Displacement from previous Coordinates is:  0.006425
 ----------------------------------------------------------------
             Standard Nuclear Orientation (Angstroms)
    I     Atom           X                Y                Z
 ----------------------------------------------------------------
    1      C       1.0892766586    -0.2529432930    -0.0000473729
    2      N       0.6969923811     1.0108268049     0.0001087017
    3      N      -0.6970223415     1.0108255784    -0.0000408357
    4      C      -1.0893046163    -0.2529440714     0.0000247810
    5      N      -0.0000120973    -1.0947775903     0.0000361794
    6      H       2.1208956368    -0.6042038672    -0.0000652354
    7      H      -2.1209208743    -0.6042118408     0.0000187673
    8      H      -0.0000170499    -2.1139925500     0.0000482371
 ----------------------------------------------------------------
 Molecular Point Group                 C1    NOp =  1
 Largest Abelian Subgroup              C1    NOp =  1
 Nuclear Repulsion Energy =   163.2645306464 hartrees
 There are       18 alpha and       18 beta electrons
 Applying Cartesian multipole field
    Component          Value
    ---------          -----
     (2,0,0)        1.00000E-11
     (0,2,0)        2.00000E-11
     (0,0,2)       -3.00000E-10
 Nucleus-field energy     =     0.0000000031 hartrees
 Requested basis set is 6-31G(d)
 There are 26 shells and 76 basis functions
 A cutoff of  1.0D-11 yielded    346 shell pairs
 There are      3031 function pairs (      3451 Cartesian)
 Smallest overlap matrix eigenvalue = 3.80E-03
 Guess MOs from SCF MO coefficient file
Reading MOs from coefficient file
Reading MOs from coefficient file
 A restricted Kohn-Sham SCF calculation will be
 performed using Pulay DIIS extrapolation
 Exchange:  Becke88      Correlation:  Perdew '86
 Using SG-1 standard quadrature grid
 SCF converges when DIIS error is below 1.0E-08
 Maximum number of SCF iterations = 200
Geometry optimization detected.  Setting ReadMinima to 0
Setting SaveMinima to 0
 using 8 threads for integral computing 
         cpu   0.38 wall   0.05
 -------------------------------------------------------
 OpenMP BLAS3 based DFT computing Module                
 Release: version 1.0, May 2013, Q-Chem Inc. Pittsburgh 
 -------------------------------------------------------
in dftxc.C, eleTot sum is:36.001522, tauTot is:0.000000
 One-Electron    Energy =  -650.5546891021
 Total Coulomb   Energy =   277.6968549183
 Alpha Exchange  Energy =     0.0000000000
 Beta  Exchange  Energy =     0.0000000000
 DFT   Exchange  Energy =   -31.3264765677
 DFT Correlation Energy =    -1.3248510192
 Kinetic         Energy =   240.4266754250
 Nuclear Repu.   Energy =   163.2645306495
 Nuclear Attr.   Energy =  -890.9813645270
 ---------------------------------------
  Cycle       Energy         DIIS Error
 ---------------------------------------
    1    -242.2446311212      1.54E-04
         cpu   0.38 wall   0.05
in dftxc.C, eleTot sum is:35.999884, tauTot is:0.000000
 One-Electron    Energy =  -650.5380308813
 Total Coulomb   Energy =   277.6807143021
 Alpha Exchange  Energy =     0.0000000000
 Beta  Exchange  Energy =     0.0000000000
 DFT   Exchange  Energy =   -31.3262437920
 DFT Correlation Energy =    -1.3247593658
 Kinetic         Energy =   240.4297395675
 Nuclear Repu.   Energy =   163.2645306495
 Nuclear Attr.   Energy =  -890.9677704488
    2    -242.2437890875      5.27E-05
         cpu   0.40 wall   0.05
in dftxc.C, eleTot sum is:35.999884, tauTot is:0.000000
 One-Electron    Energy =  -650.5371779246
 Total Coulomb   Energy =   277.6794069840
 Alpha Exchange  Energy =     0.0000000000
 Beta  Exchange  Energy =     0.0000000000
 DFT   Exchange  Energy =   -31.3257512338
 DFT Correlation Energy =    -1.3247883176
 Kinetic         Energy =   240.4271996454
 Nuclear Repu.   Energy =   163.2645306495
 Nuclear Attr.   Energy =  -890.9643775700
    3    -242.2437798424      1.26E-04
         cpu   0.38 wall   0.05
in dftxc.C, eleTot sum is:35.999884, tauTot is:0.000000
 One-Electron    Energy =  -650.5409617361
 Total Coulomb   Energy =   277.6837955828
 Alpha Exchange  Energy =     0.0000000000
 Beta  Exchange  Energy =     0.0000000000
 DFT   Exchange  Energy =   -31.3263815690
 DFT Correlation Energy =    -1.3247739071
 Kinetic         Energy =   240.4306810616
 Nuclear Repu.   Energy =   163.2645306495
 Nuclear Attr.   Energy =  -890.9716427978
    4    -242.2437909800      1.22E-05
         cpu   0.38 wall   0.05
in dftxc.C, eleTot sum is:35.999884, tauTot is:0.000000
 One-Electron    Energy =  -650.5394411289
 Total Coulomb   Energy =   277.6821616029
 Alpha Exchange  Energy =     0.0000000000
 Beta  Exchange  Energy =     0.0000000000
 DFT   Exchange  Energy =   -31.3262716944
 DFT Correlation Energy =    -1.3247704979
 Kinetic         Energy =   240.4299814728
 Nuclear Repu.   Energy =   163.2645306495
 Nuclear Attr.   Energy =  -890.9694226017
    5    -242.2437910688      4.20E-06
         cpu   0.38 wall   0.05
in dftxc.C, eleTot sum is:35.999884, tauTot is:0.000000
 One-Electron    Energy =  -650.5392414737
 Total Coulomb   Energy =   277.6819249446
 Alpha Exchange  Energy =     0.0000000000
 Beta  Exchange  Energy =     0.0000000000
 DFT   Exchange  Energy =   -31.3262339289
 DFT Correlation Energy =    -1.3247712715
 Kinetic         Energy =   240.4297360998
 Nuclear Repu.   Energy =   163.2645306495
 Nuclear Attr.   Energy =  -890.9689775736
    6    -242.2437910800      6.44E-07
         cpu   0.37 wall   0.05
in dftxc.C, eleTot sum is:35.999884, tauTot is:0.000000
 One-Electron    Energy =  -650.5394920441
 Total Coulomb   Energy =   277.6821969767
 Alpha Exchange  Energy =     0.0000000000
 Beta  Exchange  Energy =     0.0000000000
 DFT   Exchange  Energy =   -31.3262550670
 DFT Correlation Energy =    -1.3247715954
 Kinetic         Energy =   240.4298767870
 Nuclear Repu.   Energy =   163.2645306495
 Nuclear Attr.   Energy =  -890.9693688311
    7    -242.2437910803      1.74E-07
         cpu   0.39 wall   0.05
in dftxc.C, eleTot sum is:35.999884, tauTot is:0.000000
 One-Electron    Energy =  -650.5394286823
 Total Coulomb   Energy =   277.6821290618
 Alpha Exchange  Energy =     0.0000000000
 Beta  Exchange  Energy =     0.0000000000
 DFT   Exchange  Energy =   -31.3262506431
 DFT Correlation Energy =    -1.3247714662
 Kinetic         Energy =   240.4298465716
 Nuclear Repu.   Energy =   163.2645306495
 Nuclear Attr.   Energy =  -890.9692752539
    8    -242.2437910803      1.65E-08
         cpu   0.38 wall   0.05
in dftxc.C, eleTot sum is:35.999884, tauTot is:0.000000
 One-Electron    Energy =  -650.5394321152
 Total Coulomb   Energy =   277.6821327435
 Alpha Exchange  Energy =     0.0000000000
 Beta  Exchange  Energy =     0.0000000000
 DFT   Exchange  Energy =   -31.3262508838
 DFT Correlation Energy =    -1.3247714743
 Kinetic         Energy =   240.4298485006
 Nuclear Repu.   Energy =   163.2645306495
 Nuclear Attr.   Energy =  -890.9692806158
    9    -242.2437910803      2.68E-08
         cpu   0.38 wall   0.05
in dftxc.C, eleTot sum is:35.999884, tauTot is:0.000000
 One-Electron    Energy =  -650.5394306875
 Total Coulomb   Energy =   277.6821312184
 Alpha Exchange  Energy =     0.0000000000
 Beta  Exchange  Energy =     0.0000000000
 DFT   Exchange  Energy =   -31.3262507904
 DFT Correlation Energy =    -1.3247714703
 Kinetic         Energy =   240.4298477008
 Nuclear Repu.   Energy =   163.2645306495
 Nuclear Attr.   Energy =  -890.9692783883
   10    -242.2437910803      1.11E-08
         cpu   0.39 wall   0.05
in dftxc.C, eleTot sum is:35.999884, tauTot is:0.000000
 One-Electron    Energy =  -650.5394297497
 Total Coulomb   Energy =   277.6821301845
 Alpha Exchange  Energy =     0.0000000000
 Beta  Exchange  Energy =     0.0000000000
 DFT   Exchange  Energy =   -31.3262506944
 DFT Correlation Energy =    -1.3247714702
 Kinetic         Energy =   240.4298470967
 Nuclear Repu.   Energy =   163.2645306495
 Nuclear Attr.   Energy =  -890.9692768463
   11    -242.2437910803      3.71E-09 Convergence criterion met
 ---------------------------------------
 One-Electron    Energy =  -650.5394297497
 Total Coulomb   Energy =   277.6821301845
 Alpha Exchange  Energy =     0.0000000000
 Beta  Exchange  Energy =     0.0000000000
 DFT   Exchange  Energy =   -31.3262506944
 DFT Correlation Energy =    -1.3247714702
 Nuclear Repu.   Energy =   163.2645306495
 Nuclear Attr.   Energy =  -890.9692768463
 Kinetic         Energy =   240.4298470967
 SCF time:  CPU 14.20 s  wall 7.00 s
 Final Alpha MO Eigenvalues
            1           2           3           4           5           6
    1 -14.0950602 -14.0275038 -14.0274480  -9.9736606  -9.9736456  -0.9712331
            7           8           9          10          11          12
    1  -0.8351509  -0.7340752  -0.5816405  -0.5653763  -0.5288229  -0.4206061
           13          14          15          16          17          18
    1  -0.4090592  -0.4060471  -0.2706202  -0.2634466  -0.2353060  -0.2095411
           19          20          21          22          23
    1  -0.0220513   0.0008348   0.0351716   0.0905837   0.0981816
 SCF   energy in the final basis set = -242.2437910803
 Total energy in the final basis set = -242.2437910803
 Analysis of SCF Wavefunction

 --------------------------------------------------------------
                    Orbital Energies (a.u.)
 --------------------------------------------------------------

 Alpha MOs
 -- Occupied --
-14.095 -14.028 -14.027  -9.974  -9.974  -0.971  -0.835  -0.734
 -0.582  -0.565  -0.529  -0.421  -0.409  -0.406  -0.271  -0.263
 -0.235  -0.210
 -- Virtual --
 -0.022   0.001   0.035   0.091   0.098   0.152   0.188   0.252
  0.277   0.352   0.485   0.488   0.517   0.529   0.536   0.599
  0.611   0.669   0.675   0.720   0.729   0.741   0.778   0.794
  0.833   0.842   0.888   0.980   1.136   1.175   1.203   1.244
  1.283   1.316   1.387   1.482   1.486   1.488   1.588   1.773
  1.881   1.926   1.974   2.026   2.091   2.186   2.191   2.200
  2.254   2.328   2.456   2.502   2.519   2.589   2.621   2.835
  2.906   2.930
 --------------------------------------------------------------

 -----------------------------------------------------------------
                    Cartesian Multipole Moments
 -----------------------------------------------------------------
    Charge (ESU x 10^10)
                -0.0000
    Dipole Moment (Debye)
         X       0.0000      Y      -5.5386      Z      -0.0001
       Tot       5.5386
    Quadrupole Moments (Debye-Ang)
        XX     -24.9779     XY       0.0001     YY     -27.8760
        XZ      -0.0004     YZ      -0.0002     ZZ     -29.5935
    Octopole Moments (Debye-Ang^2)
       XXX       0.0011    XXY      -8.3793    XYY       0.0003
       YYY     -22.7018    XXZ      -0.0008    XYZ      -0.0001
       YYZ      -0.0003    XZZ       0.0004    YZZ      -0.3667
       ZZZ      -0.0014
    Hexadecapole Moments (Debye-Ang^3)
      XXXX    -139.6685   XXXY       0.0004   XXYY     -57.7863
      XYYY       0.0004   YYYY    -134.6948   XXXZ      -0.0009
      XXYZ      -0.0003   XYYZ      -0.0007   YYYZ      -0.0015
      XXZZ     -34.4152   XYZZ       0.0000   YYZZ     -31.3257
      XZZZ      -0.0002   YZZZ      -0.0005   ZZZZ     -26.9847
 -----------------------------------------------------------------
 Mayer SCF Bond Order, atomic valence on the diagonal:

            1           2           3           4           5           6
    1   3.7340668   1.5838221   0.0213812   0.0631446   1.1379702   0.9170039
    2   1.5838221   2.9617645   1.2409151   0.0213816   0.0862177  -0.0050707
    3   0.0213812   1.2409151   2.9617651   1.5838241   0.0862172   0.0143056
    4   0.0631446   0.0213816   1.5838241   3.7340671   1.1379684   0.0098699
    5   1.1379702   0.0862177   0.0862172   1.1379684   3.2465622  -0.0068673
    6   0.9170039  -0.0050707   0.0143056   0.0098699  -0.0068673   0.9305370
    7   0.0098699   0.0143057  -0.0050706   0.9170037  -0.0068673   0.0011027
    8   0.0008749   0.0201929   0.0201925   0.0008747   0.8119234   0.0001930
            7           8
    1   0.0098699   0.0008749
    2   0.0143057   0.0201929
    3  -0.0050706   0.0201925
    4   0.9170037   0.0008747
    5  -0.0068673   0.8119234
    6   0.0011027   0.0001930
    7   0.9305371   0.0001930
    8   0.0001930   0.8544443


 Calculating analytic gradient of the SCF energy
         cpu   0.68 wall   0.09
in dftxc.C, eleTot sum is:35.999884, tauTot is:0.000000
 Gradient of SCF Energy
            1           2           3           4           5           6
    1   0.0005419  -0.0009413   0.0009414  -0.0005435   0.0000017  -0.0000069
    2  -0.0005317   0.0003245   0.0003238  -0.0005303   0.0003600   0.0000302
    3  -0.0000264   0.0000360  -0.0000268   0.0000067   0.0000098  -0.0000024
            7           8
    1   0.0000072  -0.0000006
    2   0.0000299  -0.0000063
    3   0.0000012   0.0000020
 Max gradient component =       9.414E-04
 RMS gradient           =       3.691E-04
 Gradient time:  CPU 2.60 s  wall 1.53 s
 Geometry Optimization Parameters
   NAtoms,    NIC,     NZ,  NCons,   NDum,   NFix, NCnnct, MaxDiis
        8      48       0       0       0       0       0       0

 Cartesian Hessian Update
 Hessian Updated using BFGS Update


** GEOMETRY OPTIMIZATION IN DELOCALIZED INTERNAL COORDINATES **
   Searching for a Minimum

   Optimization Cycle:   4

                       Coordinates (Angstroms)
     ATOM                X               Y               Z
      1  C         1.0892766586   -0.2529432930   -0.0000473729
      2  N         0.6969923811    1.0108268049    0.0001087017
      3  N        -0.6970223415    1.0108255784   -0.0000408357
      4  C        -1.0893046163   -0.2529440714    0.0000247810
      5  N        -0.0000120973   -1.0947775903    0.0000361794
      6  H         2.1208956368   -0.6042038672   -0.0000652354
      7  H        -2.1209208743   -0.6042118408    0.0000187673
      8  H        -0.0000170499   -2.1139925500    0.0000482371
   Point Group: c1    Number of degrees of freedom:    18


   Energy is   -242.243791080

 GETINT wrote B to file, NVib is           18
 Hessian Updated using BFGS Update

 18 Hessian modes will be used to form the next step
  Hessian Eigenvalues:
     0.020786    0.020799    0.022291    0.023460    0.023484    0.159406
     0.160000    0.160000    0.203208    0.238551    0.359620    0.360658
     0.397979    0.464169    0.493949    0.518540    0.589758    0.599691

 Minimum Search - Taking Simple RFO Step
 Searching for Lamda that Minimizes Along All modes
 Value Taken    Lamda =  -0.00000479
 Step Taken.  Stepsize is  0.005214

                             Maximum     Tolerance    Cnvgd?
         Gradient           0.000640      0.000300      NO
         Displacement       0.002813      0.001200      NO
         Energy change     -0.000011      0.000001      NO


 New Cartesian Coordinates Obtained by Inverse Iteration

 Displacement from previous Coordinates is:  0.003455
 ----------------------------------------------------------------
             Standard Nuclear Orientation (Angstroms)
    I     Atom           X                Y                Z
 ----------------------------------------------------------------
    1      C       1.0887842840    -0.2526065351     0.0001479700
    2      N       0.6977975327     1.0108354664    -0.0003833618
    3      N      -0.6978276721     1.0108348619     0.0002331283
    4      C      -1.0888129886    -0.2526080333     0.0000134644
    5      N      -0.0000140220    -1.0950806235    -0.0000637628
    6      H       2.1202902978    -0.6042779719     0.0001536220
    7      H      -2.1203186312    -0.6042817301     0.0000919224
    8      H      -0.0000111031    -2.1142362637    -0.0001097599
 ----------------------------------------------------------------
 Molecular Point Group                 C1    NOp =  1
 Largest Abelian Subgroup              C1    NOp =  1
 Nuclear Repulsion Energy =   163.2604939491 hartrees
 There are       18 alpha and       18 beta electrons
 Applying Cartesian multipole field
    Component          Value
    ---------          -----
     (2,0,0)        1.00000E-11
     (0,2,0)        2.00000E-11
     (0,0,2)       -3.00000E-10
 Nucleus-field energy     =     0.0000000031 hartrees
 Requested basis set is 6-31G(d)
 There are 26 shells and 76 basis functions
 A cutoff of  1.0D-11 yielded    346 shell pairs
 There are      3031 function pairs (      3451 Cartesian)
 Smallest overlap matrix eigenvalue = 3.81E-03
 Guess MOs from SCF MO coefficient file
Reading MOs from coefficient file
Reading MOs from coefficient file
 A restricted Kohn-Sham SCF calculation will be
 performed using Pulay DIIS extrapolation
 Exchange:  Becke88      Correlation:  Perdew '86
 Using SG-1 standard quadrature grid
 SCF converges when DIIS error is below 1.0E-08
 Maximum number of SCF iterations = 200
Geometry optimization detected.  Setting ReadMinima to 0
Setting SaveMinima to 0
 using 8 threads for integral computing 
         cpu   0.38 wall   0.05
 -------------------------------------------------------
 OpenMP BLAS3 based DFT computing Module                
 Release: version 1.0, May 2013, Q-Chem Inc. Pittsburgh 
 -------------------------------------------------------
in dftxc.C, eleTot sum is:36.000266, tauTot is:0.000000
 One-Electron    Energy =  -650.5334189985
 Total Coulomb   Energy =   277.6806194801
 Alpha Exchange  Energy =     0.0000000000
 Beta  Exchange  Energy =     0.0000000000
 DFT   Exchange  Energy =   -31.3264310756
 DFT Correlation Energy =    -1.3247679497
 Kinetic         Energy =   240.4302950619
 Nuclear Repu.   Energy =   163.2604939522
 Nuclear Attr.   Energy =  -890.9637140605
 ---------------------------------------
  Cycle       Energy         DIIS Error
 ---------------------------------------
    1    -242.2435045916      1.37E-04
         cpu   0.39 wall   0.05
in dftxc.C, eleTot sum is:35.999884, tauTot is:0.000000
 One-Electron    Energy =  -650.5321151539
 Total Coulomb   Energy =   277.6791672259
 Alpha Exchange  Energy =     0.0000000000
 Beta  Exchange  Energy =     0.0000000000
 DFT   Exchange  Energy =   -31.3265860409
 DFT Correlation Energy =    -1.3247521044
 Kinetic         Energy =   240.4323130996
 Nuclear Repu.   Energy =   163.2604939522
 Nuclear Attr.   Energy =  -890.9644282534
    2    -242.2437921211      4.45E-05
         cpu   0.39 wall   0.05
in dftxc.C, eleTot sum is:35.999884, tauTot is:0.000000
 One-Electron    Energy =  -650.5263252422
 Total Coulomb   Energy =   277.6725553298
 Alpha Exchange  Energy =     0.0000000000
 Beta  Exchange  Energy =     0.0000000000
 DFT   Exchange  Energy =   -31.3257428983
 DFT Correlation Energy =    -1.3247685305
 Kinetic         Energy =   240.4272184735
 Nuclear Repu.   Energy =   163.2604939522
 Nuclear Attr.   Energy =  -890.9535437158
    3    -242.2437873891      9.33E-05
         cpu   0.39 wall   0.05
in dftxc.C, eleTot sum is:35.999884, tauTot is:0.000000
 One-Electron    Energy =  -650.5313366411
 Total Coulomb   Energy =   277.6782696946
 Alpha Exchange  Energy =     0.0000000000
 Beta  Exchange  Energy =     0.0000000000
 DFT   Exchange  Energy =   -31.3264633922
 DFT Correlation Energy =    -1.3247568494
 Kinetic         Energy =   240.4314644125
 Nuclear Repu.   Energy =   163.2604939522
 Nuclear Attr.   Energy =  -890.9628010536
    4    -242.2437932358      1.81E-05
         cpu   0.40 wall   0.05
in dftxc.C, eleTot sum is:35.999884, tauTot is:0.000000
 One-Electron    Energy =  -650.5312442941
 Total Coulomb   Energy =   277.6781662663
 Alpha Exchange  Energy =     0.0000000000
 Beta  Exchange  Energy =     0.0000000000
 DFT   Exchange  Energy =   -31.3264526151
 DFT Correlation Energy =    -1.3247567474
 Kinetic         Energy =   240.4314883082
 Nuclear Repu.   Energy =   163.2604939522
 Nuclear Attr.   Energy =  -890.9627326023
    5    -242.2437934381      6.08E-06
         cpu   0.38 wall   0.05
in dftxc.C, eleTot sum is:35.999884, tauTot is:0.000000
 One-Electron    Energy =  -650.5307312055
 Total Coulomb   Energy =   277.6775873675
 Alpha Exchange  Energy =     0.0000000000
 Beta  Exchange  Energy =     0.0000000000
 DFT   Exchange  Energy =   -31.3263864162
 DFT Correlation Energy =    -1.3247571594
 Kinetic         Energy =   240.4310518956
 Nuclear Repu.   Energy =   163.2604939522
 Nuclear Attr.   Energy =  -890.9617831011
    6    -242.2437934614      2.66E-07
         cpu   0.38 wall   0.05
in dftxc.C, eleTot sum is:35.999884, tauTot is:0.000000
 One-Electron    Energy =  -650.5308453253
 Total Coulomb   Energy =   277.6777109074
 Alpha Exchange  Energy =     0.0000000000
 Beta  Exchange  Energy =     0.0000000000
 DFT   Exchange  Energy =   -31.3263956629
 DFT Correlation Energy =    -1.3247573328
 Kinetic         Energy =   240.4311133657
 Nuclear Repu.   Energy =   163.2604939522
 Nuclear Attr.   Energy =  -890.9619586911
    7    -242.2437934614      9.51E-08
         cpu   0.38 wall   0.05
in dftxc.C, eleTot sum is:35.999884, tauTot is:0.000000
 One-Electron    Energy =  -650.5308097258
 Total Coulomb   Energy =   277.6776728381
 Alpha Exchange  Energy =     0.0000000000
 Beta  Exchange  Energy =     0.0000000000
 DFT   Exchange  Energy =   -31.3263932704
 DFT Correlation Energy =    -1.3247572556
 Kinetic         Energy =   240.4310969337
 Nuclear Repu.   Energy =   163.2604939522
 Nuclear Attr.   Energy =  -890.9619066595
    8    -242.2437934614      1.12E-08
         cpu   0.57 wall   0.08
in dftxc.C, eleTot sum is:35.999884, tauTot is:0.000000
 One-Electron    Energy =  -650.5308171820
 Total Coulomb   Energy =   277.6776809302
 Alpha Exchange  Energy =     0.0000000000
 Beta  Exchange  Energy =     0.0000000000
 DFT   Exchange  Energy =   -31.3263938957
 DFT Correlation Energy =    -1.3247572661
 Kinetic         Energy =   240.4311011112
 Nuclear Repu.   Energy =   163.2604939522
 Nuclear Attr.   Energy =  -890.9619182932
    9    -242.2437934614      1.83E-08
         cpu   0.57 wall   0.08
in dftxc.C, eleTot sum is:35.999884, tauTot is:0.000000
 One-Electron    Energy =  -650.5308131431
 Total Coulomb   Energy =   277.6776765084
 Alpha Exchange  Energy =     0.0000000000
 Beta  Exchange  Energy =     0.0000000000
 DFT   Exchange  Energy =   -31.3263935159
 DFT Correlation Energy =    -1.3247572631
 Kinetic         Energy =   240.4310986432
 Nuclear Repu.   Energy =   163.2604939522
 Nuclear Attr.   Energy =  -890.9619117862
   10    -242.2437934614      6.30E-09 Convergence criterion met
 ---------------------------------------
 One-Electron    Energy =  -650.5308131431
 Total Coulomb   Energy =   277.6776765084
 Alpha Exchange  Energy =     0.0000000000
 Beta  Exchange  Energy =     0.0000000000
 DFT   Exchange  Energy =   -31.3263935159
 DFT Correlation Energy =    -1.3247572631
 Nuclear Repu.   Energy =   163.2604939522
 Nuclear Attr.   Energy =  -890.9619117862
 Kinetic         Energy =   240.4310986432
 SCF time:  CPU 13.15 s  wall 6.72 s
 Final Alpha MO Eigenvalues
            1           2           3           4           5           6
    1 -14.0949771 -14.0275402 -14.0274840  -9.9736790  -9.9736639  -0.9711542
            7           8           9          10          11          12
    1  -0.8350157  -0.7343672  -0.5814744  -0.5655177  -0.5289097  -0.4204853
           13          14          15          16          17          18
    1  -0.4088688  -0.4060579  -0.2704805  -0.2633716  -0.2355292  -0.2098927
           19          20          21          22          23
    1  -0.0218896   0.0007463   0.0351462   0.0907179   0.0979417
 SCF   energy in the final basis set = -242.2437934614
 Total energy in the final basis set = -242.2437934614
 Analysis of SCF Wavefunction

 --------------------------------------------------------------
                    Orbital Energies (a.u.)
 --------------------------------------------------------------

 Alpha MOs
 -- Occupied --
-14.095 -14.028 -14.027  -9.974  -9.974  -0.971  -0.835  -0.734
 -0.581  -0.566  -0.529  -0.420  -0.409  -0.406  -0.270  -0.263
 -0.236  -0.210
 -- Virtual --
 -0.022   0.001   0.035   0.091   0.098   0.151   0.188   0.252
  0.277   0.351   0.485   0.488   0.517   0.529   0.536   0.600
  0.611   0.669   0.675   0.720   0.729   0.741   0.778   0.794
  0.833   0.842   0.888   0.980   1.136   1.175   1.203   1.244
  1.283   1.316   1.388   1.482   1.486   1.488   1.588   1.772
  1.881   1.926   1.975   2.027   2.090   2.187   2.191   2.200
  2.254   2.327   2.456   2.502   2.520   2.590   2.621   2.835
  2.906   2.931
 --------------------------------------------------------------

 -----------------------------------------------------------------
                    Cartesian Multipole Moments
 -----------------------------------------------------------------
    Charge (ESU x 10^10)
[...]
   Searching for a Minimum

   Optimization Cycle:   5

                       Coordinates (Angstroms)
     ATOM                X               Y               Z
      1  C         1.0887842840   -0.2526065351    0.0001479700
      2  N         0.6977975327    1.0108354664   -0.0003833618
      3  N        -0.6978276721    1.0108348619    0.0002331283
      4  C        -1.0888129886   -0.2526080333    0.0000134644
      5  N        -0.0000140220   -1.0950806235   -0.0000637628
      6  H         2.1202902978   -0.6042779719    0.0001536220
      7  H        -2.1203186312   -0.6042817301    0.0000919224
      8  H        -0.0000111031   -2.1142362637   -0.0001097599
   Point Group: c1    Number of degrees of freedom:    18


   Energy is   -242.243793461

 GETINT wrote B to file, NVib is           18
 Hessian Updated using BFGS Update

 18 Hessian modes will be used to form the next step
  Hessian Eigenvalues:
     0.020787    0.021584    0.022607    0.023483    0.024214    0.159116
     0.160000    0.160000    0.186758    0.238551    0.359620    0.360713
     0.394868    0.464113    0.493949    0.524300    0.589758    0.602464

 Minimum Search - Taking Simple RFO Step
 Searching for Lamda that Minimizes Along All modes
 Value Taken    Lamda =   0.00000000
 Step Taken.  Stepsize is  0.004633

                             Maximum     Tolerance    Cnvgd?
         Gradient           0.000084      0.000300     YES
         Displacement       0.003517      0.001200      NO
         Energy change     -0.000002      0.000001      NO


 New Cartesian Coordinates Obtained by Inverse Iteration

 Displacement from previous Coordinates is:  0.002768
 ----------------------------------------------------------------
             Standard Nuclear Orientation (Angstroms)
    I     Atom           X                Y                Z
 ----------------------------------------------------------------
    1      C       1.0887934087    -0.2525559158    -0.0002672681
    2      N       0.6979511450     1.0108405620     0.0006864651
    3      N      -0.6979815327     1.0108397396    -0.0004003327
    4      C      -1.0888220821    -0.2525578855     0.0000610898
    5      N      -0.0000139043    -1.0951150014     0.0001340533
    6      H       2.1203433871    -0.6042889111    -0.0002995413
    7      H      -2.1203717107    -0.6042920808    -0.0000383146
    8      H      -0.0000110136    -2.1142913362     0.0002070711
 ----------------------------------------------------------------
 Molecular Point Group                 C1    NOp =  1
 Largest Abelian Subgroup              C1    NOp =  1
 Nuclear Repulsion Energy =   163.2544407291 hartrees
 There are       18 alpha and       18 beta electrons
 Applying Cartesian multipole field
    Component          Value
    ---------          -----
     (2,0,0)        1.00000E-11
     (0,2,0)        2.00000E-11
     (0,0,2)       -3.00000E-10
 Nucleus-field energy     =     0.0000000031 hartrees
 Requested basis set is 6-31G(d)
 There are 26 shells and 76 basis functions
 A cutoff of  1.0D-11 yielded    346 shell pairs
 There are      3031 function pairs (      3451 Cartesian)
 Smallest overlap matrix eigenvalue = 3.81E-03
 Guess MOs from SCF MO coefficient file
Reading MOs from coefficient file
Reading MOs from coefficient file
 A restricted Kohn-Sham SCF calculation will be
 performed using Pulay DIIS extrapolation
 Exchange:  Becke88      Correlation:  Perdew '86
 Using SG-1 standard quadrature grid
 SCF converges when DIIS error is below 1.0E-08
 Maximum number of SCF iterations = 200
Geometry optimization detected.  Setting ReadMinima to 0
Setting SaveMinima to 0
 using 8 threads for integral computing 
         cpu   0.37 wall   0.05
 -------------------------------------------------------
 OpenMP BLAS3 based DFT computing Module                
 Release: version 1.0, May 2013, Q-Chem Inc. Pittsburgh 
 -------------------------------------------------------
in dftxc.C, eleTot sum is:35.999797, tauTot is:0.000000
 One-Electron    Energy =  -650.5178076680
 Total Coulomb   Energy =   277.6707314856
 Alpha Exchange  Energy =     0.0000000000
 Beta  Exchange  Energy =     0.0000000000
 DFT   Exchange  Energy =   -31.3262277838
 DFT Correlation Energy =    -1.3247370279
 Kinetic         Energy =   240.4307280758
 Nuclear Repu.   Energy =   163.2544407322
 Nuclear Attr.   Energy =  -890.9485357438
 ---------------------------------------
  Cycle       Energy         DIIS Error
 ---------------------------------------
    1    -242.2436002618      5.71E-05
         cpu   0.37 wall   0.05
in dftxc.C, eleTot sum is:35.999884, tauTot is:0.000000
 One-Electron    Energy =  -650.5196199237
 Total Coulomb   Energy =   277.6724392735
 Alpha Exchange  Energy =     0.0000000000
 Beta  Exchange  Energy =     0.0000000000
 DFT   Exchange  Energy =   -31.3263092763
 DFT Correlation Energy =    -1.3247440435
 Kinetic         Energy =   240.4309824889
 Nuclear Repu.   Energy =   163.2544407322
 Nuclear Attr.   Energy =  -890.9506024126
    2    -242.2437932378      7.72E-06
         cpu   0.38 wall   0.05
in dftxc.C, eleTot sum is:35.999884, tauTot is:0.000000
 One-Electron    Energy =  -650.5176299810
 Total Coulomb   Energy =   277.6702264051
 Alpha Exchange  Energy =     0.0000000000
 Beta  Exchange  Energy =     0.0000000000
 DFT   Exchange  Energy =   -31.3260851906
 DFT Correlation Energy =    -1.3247450842
 Kinetic         Energy =   240.4295598126
 Nuclear Repu.   Energy =   163.2544407322
 Nuclear Attr.   Energy =  -890.9471897936
    3    -242.2437931185      1.53E-05
         cpu   0.62 wall   0.09
in dftxc.C, eleTot sum is:35.999884, tauTot is:0.000000
 One-Electron    Energy =  -650.5190277832
 Total Coulomb   Energy =   277.6717985544
 Alpha Exchange  Energy =     0.0000000000
 Beta  Exchange  Energy =     0.0000000000
 DFT   Exchange  Energy =   -31.3262613871
 DFT Correlation Energy =    -1.3247433819
 Kinetic         Energy =   240.4306496784
 Nuclear Repu.   Energy =   163.2544407322
 Nuclear Attr.   Energy =  -890.9496774616
    4    -242.2437932656      4.02E-06
         cpu   0.61 wall   0.09
in dftxc.C, eleTot sum is:35.999884, tauTot is:0.000000
 One-Electron    Energy =  -650.5190605033
 Total Coulomb   Energy =   277.6718269051
 Alpha Exchange  Energy =     0.0000000000
 Beta  Exchange  Energy =     0.0000000000
 DFT   Exchange  Energy =   -31.3262565623
 DFT Correlation Energy =    -1.3247438476
 Kinetic         Energy =   240.4306450629
 Nuclear Repu.   Energy =   163.2544407322
 Nuclear Attr.   Energy =  -890.9497055663
    5    -242.2437932759      1.36E-06
         cpu   0.62 wall   0.09
in dftxc.C, eleTot sum is:35.999884, tauTot is:0.000000
 One-Electron    Energy =  -650.5189700614
 Total Coulomb   Energy =   277.6717250214
 Alpha Exchange  Energy =     0.0000000000
 Beta  Exchange  Energy =     0.0000000000
 DFT   Exchange  Energy =   -31.3262450701
 DFT Correlation Energy =    -1.3247438992
 Kinetic         Energy =   240.4305677409
 Nuclear Repu.   Energy =   163.2544407322
 Nuclear Attr.   Energy =  -890.9495378022
    6    -242.2437932771      8.73E-08
         cpu   0.37 wall   0.05
in dftxc.C, eleTot sum is:35.999884, tauTot is:0.000000
 One-Electron    Energy =  -650.5189682312
 Total Coulomb   Energy =   277.6717233957
 Alpha Exchange  Energy =     0.0000000000
 Beta  Exchange  Energy =     0.0000000000
 DFT   Exchange  Energy =   -31.3262452948
 DFT Correlation Energy =    -1.3247438790
 Kinetic         Energy =   240.4305689969
 Nuclear Repu.   Energy =   163.2544407322
 Nuclear Attr.   Energy =  -890.9495372281
    7    -242.2437932771      2.92E-08
         cpu   0.38 wall   0.05
in dftxc.C, eleTot sum is:35.999884, tauTot is:0.000000
 One-Electron    Energy =  -650.5189716822
 Total Coulomb   Energy =   277.6717271361
 Alpha Exchange  Energy =     0.0000000000
 Beta  Exchange  Energy =     0.0000000000
 DFT   Exchange  Energy =   -31.3262455783
 DFT Correlation Energy =    -1.3247438849
 Kinetic         Energy =   240.4305708433
 Nuclear Repu.   Energy =   163.2544407322
 Nuclear Attr.   Energy =  -890.9495425255
    8    -242.2437932771      3.74E-09 Convergence criterion met
 ---------------------------------------
 One-Electron    Energy =  -650.5189716822
 Total Coulomb   Energy =   277.6717271361
 Alpha Exchange  Energy =     0.0000000000
 Beta  Exchange  Energy =     0.0000000000
 DFT   Exchange  Energy =   -31.3262455783
 DFT Correlation Energy =    -1.3247438849
 Nuclear Repu.   Energy =   163.2544407322
 Nuclear Attr.   Energy =  -890.9495425255
 Kinetic         Energy =   240.4305708433
 SCF time:  CPU 10.92 s  wall 5.40 s
 Final Alpha MO Eigenvalues
            1           2           3           4           5           6
    1 -14.0949637 -14.0275526 -14.0274963  -9.9736989  -9.9736838  -0.9711069
            7           8           9          10          11          12
    1  -0.8349620  -0.7344143  -0.5814242  -0.5655222  -0.5289068  -0.4204546
           13          14          15          16          17          18
    1  -0.4088497  -0.4060377  -0.2704429  -0.2633513  -0.2355690  -0.2099526
           19          20          21          22          23
    1  -0.0218764   0.0007193   0.0351423   0.0906974   0.0978694
 SCF   energy in the final basis set = -242.2437932771
 Total energy in the final basis set = -242.2437932771
 Analysis of SCF Wavefunction

 --------------------------------------------------------------
                    Orbital Energies (a.u.)
 --------------------------------------------------------------

 Alpha MOs
 -- Occupied --
-14.095 -14.028 -14.027  -9.974  -9.974  -0.971  -0.835  -0.734
 -0.581  -0.566  -0.529  -0.420  -0.409  -0.406  -0.270  -0.263
 -0.236  -0.210
 -- Virtual --
 -0.022   0.001   0.035   0.091   0.098   0.151   0.188   0.252
  0.277   0.351   0.485   0.488   0.517   0.529   0.536   0.600
  0.611   0.669   0.675   0.720   0.729   0.741   0.778   0.794
  0.833   0.842   0.888   0.980   1.136   1.175   1.203   1.244
  1.283   1.316   1.388   1.482   1.486   1.488   1.588   1.772
  1.881   1.926   1.975   2.027   2.090   2.187   2.191   2.199
  2.254   2.327   2.456   2.502   2.520   2.590   2.621   2.834
  2.906   2.931
 --------------------------------------------------------------

 -----------------------------------------------------------------
                    Cartesian Multipole Moments
 -----------------------------------------------------------------
    Charge (ESU x 10^10)
                -0.0000
    Dipole Moment (Debye)
         X       0.0000      Y      -5.5385      Z      -0.0004
       Tot       5.5385
    Quadrupole Moments (Debye-Ang)
        XX     -24.9883     XY       0.0001     YY     -27.8738
        XZ      -0.0021     YZ      -0.0008     ZZ     -29.5925
    Octopole Moments (Debye-Ang^2)
       XXX       0.0011    XXY      -8.3813    XYY       0.0004
       YYY     -22.7132    XXZ      -0.0030    XYZ      -0.0011
       YYZ      -0.0002    XZZ       0.0004    YZZ      -0.3707
       ZZZ      -0.0033
    Hexadecapole Moments (Debye-Ang^3)
      XXXX    -139.7577   XXXY       0.0004   XXYY     -57.7980
      XYYY       0.0003   YYYY    -134.6861   XXXZ      -0.0082
      XXYZ      -0.0012   XYYZ      -0.0064   YYYZ      -0.0073
      XXZZ     -34.4123   XYZZ       0.0000   YYZZ     -31.3311
      XZZZ      -0.0064   YZZZ      -0.0029   ZZZZ     -26.9814
 -----------------------------------------------------------------
 Mayer SCF Bond Order, atomic valence on the diagonal:

            1           2           3           4           5           6
    1   3.7347935   1.5860973   0.0212705   0.0622787   1.1373864   0.9169571
    2   1.5860973   2.9616207   1.2383695   0.0212703   0.0863699  -0.0050981
    3   0.0212705   1.2383695   2.9616207   1.5860967   0.0863701   0.0144154
    4   0.0622787   0.0212703   1.5860967   3.7347932   1.1373867   0.0098992
    5   1.1373864   0.0863699   0.0863701   1.1373867   3.2455651  -0.0069096
    6   0.9169571  -0.0050981   0.0144154   0.0098992  -0.0069096   0.9305540
    7   0.0098992   0.0144154  -0.0050981   0.9169572  -0.0069096   0.0010963
    8   0.0009042   0.0201964   0.0201966   0.0009043   0.8118713   0.0001937
            7           8
    1   0.0098992   0.0009042
    2   0.0144154   0.0201964
    3  -0.0050981   0.0201966
    4   0.9169572   0.0009043
    5  -0.0069096   0.8118713
    6   0.0010963   0.0001937
    7   0.9305540   0.0001937
    8   0.0001937   0.8544602


 Calculating analytic gradient of the SCF energy
         cpu   0.69 wall   0.09
in dftxc.C, eleTot sum is:35.999884, tauTot is:0.000000
 Gradient of SCF Energy
            1           2           3           4           5           6
    1  -0.0000487   0.0000728  -0.0000727   0.0000489  -0.0000005  -0.0000023
    2   0.0000440  -0.0000302  -0.0000298   0.0000436  -0.0000272  -0.0000020
    3  -0.0001607   0.0002317  -0.0001840   0.0000582   0.0000506  -0.0000152
            7           8
    1   0.0000023   0.0000002
    2  -0.0000020   0.0000034
    3   0.0000089   0.0000106
 Max gradient component =       2.317E-04
 RMS gradient           =       7.678E-05
 Gradient time:  CPU 2.59 s  wall 1.17 s
 Geometry Optimization Parameters
   NAtoms,    NIC,     NZ,  NCons,   NDum,   NFix, NCnnct, MaxDiis
        8      48       0       0       0       0       0       0

 Cartesian Hessian Update
 Hessian Updated using BFGS Update


** GEOMETRY OPTIMIZATION IN DELOCALIZED INTERNAL COORDINATES **
   Searching for a Minimum

   Optimization Cycle:   6

                       Coordinates (Angstroms)
     ATOM                X               Y               Z
      1  C         1.0887934087   -0.2525559158   -0.0002672681
      2  N         0.6979511450    1.0108405620    0.0006864651
      3  N        -0.6979815327    1.0108397396   -0.0004003327
      4  C        -1.0888220821   -0.2525578855    0.0000610898
      5  N        -0.0000139043   -1.0951150014    0.0001340533
      6  H         2.1203433871   -0.6042889111   -0.0002995413
      7  H        -2.1203717107   -0.6042920808   -0.0000383146
      8  H        -0.0000110136   -2.1142913362    0.0002070711
   Point Group: c1    Number of degrees of freedom:    18


   Energy is   -242.243793277

 GETINT wrote B to file, NVib is           18
 Hessian Updated using BFGS Update

 18 Hessian modes will be used to form the next step
  Hessian Eigenvalues:
     0.020787    0.022019    0.022963    0.023483    0.063791    0.159321
     0.160000    0.160000    0.191222    0.238551    0.359620    0.360741
     0.389728    0.463344    0.493949    0.511487    0.589758    0.601540

 Minimum Search - Taking Simple RFO Step
 Searching for Lamda that Minimizes Along All modes
 Value Taken    Lamda =   0.00000000
 Step Taken.  Stepsize is  0.002974

                             Maximum     Tolerance    Cnvgd?
         Gradient           0.000150      0.000300     YES
         Displacement       0.002296      0.001200      NO
         Energy change      0.000000      0.000001     YES


                       Distance Matrix (Angstroms)
             C (  1)   N (  2)   N (  3)   C (  4)   N (  5)   H (  6)
   N (  2)  1.322471
   N (  3)  2.188317  1.395933
   C (  4)  2.177616  2.188318  1.322471
   N (  5)  1.376738  2.218604  2.218604  1.376737
   H (  6)  1.089868  2.152172  3.248322  3.228383  2.176425
   H (  7)  3.228383  3.248322  2.152172  1.089868  2.176425  4.240715
   H (  8)  2.156746  3.202124  3.202125  2.156748  1.019176  2.603077
             H (  7)
   H (  8)  2.603080

 Final energy is   -242.24379327705810     


 ******************************
 **  OPTIMIZATION CONVERGED  **
 ******************************

Z-matrix Print:
$molecule
0 1
N 
H  1 1.019176
C  1 1.376737 2 127.734096
H  3 1.089868 1 123.437896 2 0.007098 0
N  3 1.322471 1 110.544129 2 179.982630 0
C  1 1.376738 2 127.733857 3 179.981395 0
H  6 1.089868 1 123.437873 2 0.016729 0
N  6 1.322471 1 110.544111 2 179.957348 0
$end

 Analysis of SCF Wavefunction

 --------------------------------------------------------------
                    Orbital Energies (a.u.)
 --------------------------------------------------------------

 Alpha MOs
 -- Occupied --
-14.095 -14.028 -14.027  -9.974  -9.974  -0.971  -0.835  -0.734
 -0.581  -0.566  -0.529  -0.420  -0.409  -0.406  -0.270  -0.263
 -0.236  -0.210
 -- Virtual --
 -0.022   0.001   0.035   0.091   0.098   0.151   0.188   0.252
  0.277   0.351   0.485   0.488   0.517   0.529   0.536   0.600
  0.611   0.669   0.675   0.720   0.729   0.741   0.778   0.794
  0.833   0.842   0.888   0.980   1.136   1.175   1.203   1.244
  1.283   1.316   1.388   1.482   1.486   1.488   1.588   1.772
  1.881   1.926   1.975   2.027   2.090   2.187   2.191   2.199
  2.254   2.327   2.456   2.502   2.520   2.590   2.621   2.834
  2.906   2.931
 --------------------------------------------------------------

 -----------------------------------------------------------------
                    Cartesian Multipole Moments
 -----------------------------------------------------------------
    Charge (ESU x 10^10)
                -0.0000
    Dipole Moment (Debye)
         X       0.0000      Y      -5.5385      Z      -0.0004
       Tot       5.5385
    Quadrupole Moments (Debye-Ang)
        XX     -24.9883     XY       0.0001     YY     -27.8738
        XZ      -0.0021     YZ      -0.0008     ZZ     -29.5925
    Octopole Moments (Debye-Ang^2)
       XXX       0.0011    XXY      -8.3813    XYY       0.0004
       YYY     -22.7132    XXZ      -0.0030    XYZ      -0.0011
       YYZ      -0.0002    XZZ       0.0004    YZZ      -0.3707
       ZZZ      -0.0033
    Hexadecapole Moments (Debye-Ang^3)
      XXXX    -139.7577   XXXY       0.0004   XXYY     -57.7980
      XYYY       0.0003   YYYY    -134.6861   XXXZ      -0.0082
      XXYZ      -0.0012   XYYZ      -0.0064   YYYZ      -0.0073
      XXZZ     -34.4123   XYZZ       0.0000   YYZZ     -31.3311
      XZZZ      -0.0064   YZZZ      -0.0029   ZZZZ     -26.9814
 -----------------------------------------------------------------
 Mayer SCF Bond Order, atomic valence on the diagonal:

            1           2           3           4           5           6
    1   3.7347935   1.5860973   0.0212705   0.0622787   1.1373864   0.9169571
    2   1.5860973   2.9616207   1.2383695   0.0212703   0.0863699  -0.0050981
    3   0.0212705   1.2383695   2.9616207   1.5860967   0.0863701   0.0144154
    4   0.0622787   0.0212703   1.5860967   3.7347932   1.1373867   0.0098992
    5   1.1373864   0.0863699   0.0863701   1.1373867   3.2455651  -0.0069096
    6   0.9169571  -0.0050981   0.0144154   0.0098992  -0.0069096   0.9305540
    7   0.0098992   0.0144154  -0.0050981   0.9169572  -0.0069096   0.0010963
    8   0.0009042   0.0201964   0.0201966   0.0009043   0.8118713   0.0001937
            7           8
    1   0.0098992   0.0009042
    2   0.0144154   0.0201964
    3  -0.0050981   0.0201966
    4   0.9169572   0.0009043
    5  -0.0069096   0.8118713
    6   0.0010963   0.0001937
    7   0.9305540   0.0001937
    8   0.0001937   0.8544602


Archival summary:
1\1\holy2a21202.rc.fas.harvard.edu\OPT\ProcedureUnspecified\6-31G*\323\hirzel\TueJul1915:16:582016TueJul1915:16:582016\0\\#,OPT,ProcedureUnspecified,6-31G*,\\0,1\N\H,1,1.01918\C,1,1.37674,2,127.734\H,3,1.08987,1,123.438,2,0.00709788,0\N,3,1.32247,1,110.544,2,179.983,0\C,1,1.37674,2,127.734,3,179.981,0\H,6,1.08987,1,123.438,2,0.0167295,0\N,6,1.32247,1,110.544,2,179.957,0\\\@

 Total job time:  60.89s(wall), 108.62s(cpu) 
 Tue Jul 19 15:16:58 2016

        *************************************************************
        *                                                           *
        *  Thank you very much for using Q-Chem.  Have a nice day.  *
        *                                                           *
        *************************************************************


0 sent ACK to 0 
now end server 0 ... 
