 Entering Gaussian System, Link 0=g16
 Initial command:
 /share/apps/Gaussian/g16_b01/g16/l1.exe "/work/169300.vici.chem.tamu.edu/Gau-16371.inp" -scrdir="/work/169300.vici.chem.tamu.edu/"
 Entering Link 1 = /share/apps/Gaussian/g16_b01/g16/l1.exe PID=     16374.
  
 Copyright (c) 1988-2017, Gaussian, Inc.  All Rights Reserved.
  
 This is part of the Gaussian(R) 16 program.  It is based on
 the Gaussian(R) 09 system (copyright 2009, Gaussian, Inc.),
 the Gaussian(R) 03 system (copyright 2003, Gaussian, Inc.),
 the Gaussian(R) 98 system (copyright 1998, Gaussian, Inc.),
 the Gaussian(R) 94 system (copyright 1995, Gaussian, Inc.),
 the Gaussian 92(TM) system (copyright 1992, Gaussian, Inc.),
 the Gaussian 90(TM) system (copyright 1990, Gaussian, Inc.),
 the Gaussian 88(TM) system (copyright 1988, Gaussian, Inc.),
 the Gaussian 86(TM) system (copyright 1986, Carnegie Mellon
 University), and the Gaussian 82(TM) system (copyright 1983,
 Carnegie Mellon University). Gaussian is a federally registered
 trademark of Gaussian, Inc.
  
 This software contains proprietary and confidential information,
 including trade secrets, belonging to Gaussian, Inc.
  
 This software is provided under written license and may be
 used, copied, transmitted, or stored only in accord with that
 written license.
  
 The following legend is applicable only to US Government
 contracts under FAR:
  
                    RESTRICTED RIGHTS LEGEND
  
 Use, reproduction and disclosure by the US Government is
 subject to restrictions as set forth in subparagraphs (a)
 and (c) of the Commercial Computer Software - Restricted
 Rights clause in FAR 52.227-19.
  
 Gaussian, Inc.
 340 Quinnipiac St., Bldg. 40, Wallingford CT 06492
  
  
 ---------------------------------------------------------------
 Warning -- This program may not be used in any manner that
 competes with the business of Gaussian, Inc. or will provide
 assistance to any competitor of Gaussian, Inc.  The licensee
 of this program is prohibited from giving any competitor of
 Gaussian, Inc. access to this program.  By using this program,
 the user acknowledges that Gaussian, Inc. is engaged in the
 business of creating and licensing software in the field of
 computational chemistry and represents and warrants to the
 licensee that it is not a competitor of Gaussian, Inc. and that
 it will not use this program in any manner prohibited above.
 ---------------------------------------------------------------
  

 Cite this work as:
 Gaussian 16, Revision B.01,
 M. J. Frisch, G. W. Trucks, H. B. Schlegel, G. E. Scuseria, 
 M. A. Robb, J. R. Cheeseman, G. Scalmani, V. Barone, 
 G. A. Petersson, H. Nakatsuji, X. Li, M. Caricato, A. V. Marenich, 
 J. Bloino, B. G. Janesko, R. Gomperts, B. Mennucci, H. P. Hratchian, 
 J. V. Ortiz, A. F. Izmaylov, J. L. Sonnenberg, D. Williams-Young, 
 F. Ding, F. Lipparini, F. Egidi, J. Goings, B. Peng, A. Petrone, 
 T. Henderson, D. Ranasinghe, V. G. Zakrzewski, J. Gao, N. Rega, 
 G. Zheng, W. Liang, M. Hada, M. Ehara, K. Toyota, R. Fukuda, 
 J. Hasegawa, M. Ishida, T. Nakajima, Y. Honda, O. Kitao, H. Nakai, 
 T. Vreven, K. Throssell, J. A. Montgomery, Jr., J. E. Peralta, 
 F. Ogliaro, M. J. Bearpark, J. J. Heyd, E. N. Brothers, K. N. Kudin, 
 V. N. Staroverov, T. A. Keith, R. Kobayashi, J. Normand, 
 K. Raghavachari, A. P. Rendell, J. C. Burant, S. S. Iyengar, 
 J. Tomasi, M. Cossi, J. M. Millam, M. Klene, C. Adamo, R. Cammi, 
 J. W. Ochterski, R. L. Martin, K. Morokuma, O. Farkas, 
 J. B. Foresman, and D. J. Fox, Gaussian, Inc., Wallingford CT, 2016.
 
 ******************************************
 Gaussian 16:  EM64L-G16RevB.01 20-Dec-2017
                 7-Jan-2020 
 ******************************************
 %mem=3800mb
 %nprocshared=1
 Will use up to    1 processors via shared memory.
 ----------------------------------------------------------------------
 #T b3lyp/Def2SVPP opt=(MaxCycles=300) int(grid=ultrafine) IOP(3/36=4) 
 scf=(xqc,tight)
 ----------------------------------------------------------------------
 --------------
 Comment gs min
 --------------
 Symbolic Z-matrix:
 Charge =  2 Multiplicity = 1
 C                    -7.1493    0.492     0.8257 
 C                    -5.7939    0.6815    0.939 
 C                    -5.0251   -0.1452    0.1466 
 N                    -3.5616   -0.0757    0.1373 
 C                    -2.8645   -1.0411   -0.5201 
 C                    -1.4676   -1.0308   -0.5668 
 C                    -0.7374   -0.0179    0.0556 
 C                     0.738     0.0157    0.0073 
 C                     1.4316    1.1562   -0.3987 
 C                     2.8284    1.1669   -0.4488 
 N                     3.5614    0.0764   -0.0975 
 C                     5.0225    0.1542   -0.1741 
 C                     5.8377   -0.8341    0.3367 
 C                     7.1835   -0.6109    0.1784 
 N                     7.6779    0.48     -0.4255 
 C                     6.8022    1.3786   -0.8798 
 N                     5.4726    1.2702   -0.7787 
 C                     2.9109   -1.0458    0.2953 
 C                     1.5126   -1.0937    0.3537 
 C                    -1.4761    0.9667    0.7158 
 C                    -2.8754    0.9223    0.7456 
 N                    -5.5261   -1.0837   -0.6791 
 C                    -6.8604   -1.1757   -0.7102 
 N                    -7.6943   -0.4227    0.0099 
 H                    -7.8613    1.0801    1.4023 
 H                    -5.4285    1.4238    1.6293 
 H                    -3.4145   -1.8407   -1.0132 
 H                    -0.9658   -1.8264   -1.1174 
 H                     0.8994    2.0578   -0.7018 
 H                     3.3494    2.0675   -0.7691 
 H                     5.5152   -1.7257    0.8488 
 H                     7.929    -1.3158    0.5427 
 H                     7.2061    2.2618   -1.3664 
 H                     3.481    -1.9325    0.551 
 H                     1.0406   -2.0199    0.6827 
 H                    -0.9743    1.7886    1.227 
 H                    -3.4185    1.7147    1.2492 
 H                    -7.3051   -1.9168   -1.3682 
 

 GradGradGradGradGradGradGradGradGradGradGradGradGradGradGradGradGradGrad
 Initialization pass.
                           ----------------------------
                           !    Initial Parameters    !
                           ! (Angstroms and Degrees)  !
 --------------------------                            --------------------------
 ! Name  Definition              Value          Derivative Info.                !
 --------------------------------------------------------------------------------
 ! R1    R(1,2)                  1.3733         estimate D2E/DX2                !
 ! R2    R(1,24)                 1.3414         estimate D2E/DX2                !
 ! R3    R(1,25)                 1.0887         estimate D2E/DX2                !
 ! R4    R(2,3)                  1.3793         estimate D2E/DX2                !
 ! R5    R(2,26)                 1.0775         estimate D2E/DX2                !
 ! R6    R(3,4)                  1.4652         estimate D2E/DX2                !
 ! R7    R(3,22)                 1.3467         estimate D2E/DX2                !
 ! R8    R(4,5)                  1.3602         estimate D2E/DX2                !
 ! R9    R(4,21)                 1.3553         estimate D2E/DX2                !
 ! R10   R(5,6)                  1.3977         estimate D2E/DX2                !
 ! R11   R(5,27)                 1.0886         estimate D2E/DX2                !
 ! R12   R(6,7)                  1.3952         estimate D2E/DX2                !
 ! R13   R(6,28)                 1.0899         estimate D2E/DX2                !
 ! R14   R(7,8)                  1.4766         estimate D2E/DX2                !
 ! R15   R(7,20)                 1.3968         estimate D2E/DX2                !
 ! R16   R(8,9)                  1.3952         estimate D2E/DX2                !
 ! R17   R(8,19)                 1.3967         estimate D2E/DX2                !
 ! R18   R(9,10)                 1.3977         estimate D2E/DX2                !
 ! R19   R(9,29)                 1.0899         estimate D2E/DX2                !
 ! R20   R(10,11)                1.3601         estimate D2E/DX2                !
 ! R21   R(10,30)                1.0886         estimate D2E/DX2                !
 ! R22   R(11,12)                1.4652         estimate D2E/DX2                !
 ! R23   R(11,18)                1.3553         estimate D2E/DX2                !
 ! R24   R(12,13)                1.3792         estimate D2E/DX2                !
 ! R25   R(12,17)                1.3467         estimate D2E/DX2                !
 ! R26   R(13,14)                1.3733         estimate D2E/DX2                !
 ! R27   R(13,31)                1.0776         estimate D2E/DX2                !
 ! R28   R(14,15)                1.3413         estimate D2E/DX2                !
 ! R29   R(14,32)                1.0887         estimate D2E/DX2                !
 ! R30   R(15,16)                1.3344         estimate D2E/DX2                !
 ! R31   R(16,17)                1.3378         estimate D2E/DX2                !
 ! R32   R(16,33)                1.0863         estimate D2E/DX2                !
 ! R33   R(18,19)                1.4003         estimate D2E/DX2                !
 ! R34   R(18,34)                1.0847         estimate D2E/DX2                !
 ! R35   R(19,35)                1.0904         estimate D2E/DX2                !
 ! R36   R(20,21)                1.4003         estimate D2E/DX2                !
 ! R37   R(20,36)                1.0903         estimate D2E/DX2                !
 ! R38   R(21,37)                1.0847         estimate D2E/DX2                !
 ! R39   R(22,23)                1.3378         estimate D2E/DX2                !
 ! R40   R(23,24)                1.3345         estimate D2E/DX2                !
 ! R41   R(23,38)                1.0863         estimate D2E/DX2                !
 ! A1    A(2,1,24)             123.0451         estimate D2E/DX2                !
 ! A2    A(2,1,25)             121.8195         estimate D2E/DX2                !
 ! A3    A(24,1,25)            115.1352         estimate D2E/DX2                !
 ! A4    A(1,2,3)              114.8369         estimate D2E/DX2                !
 ! A5    A(1,2,26)             118.8567         estimate D2E/DX2                !
 ! A6    A(3,2,26)             126.2949         estimate D2E/DX2                !
 ! A7    A(2,3,4)              122.1389         estimate D2E/DX2                !
 ! A8    A(2,3,22)             124.2349         estimate D2E/DX2                !
 ! A9    A(4,3,22)             113.6259         estimate D2E/DX2                !
 ! A10   A(3,4,5)              118.7713         estimate D2E/DX2                !
 ! A11   A(3,4,21)             122.5339         estimate D2E/DX2                !
 ! A12   A(5,4,21)             118.6902         estimate D2E/DX2                !
 ! A13   A(4,5,6)              121.5417         estimate D2E/DX2                !
 ! A14   A(4,5,27)             118.7722         estimate D2E/DX2                !
 ! A15   A(6,5,27)             119.6848         estimate D2E/DX2                !
 ! A16   A(5,6,7)              120.8979         estimate D2E/DX2                !
 ! A17   A(5,6,28)             118.14           estimate D2E/DX2                !
 ! A18   A(7,6,28)             120.9538         estimate D2E/DX2                !
 ! A19   A(6,7,8)              121.6604         estimate D2E/DX2                !
 ! A20   A(6,7,20)             116.4763         estimate D2E/DX2                !
 ! A21   A(8,7,20)             121.8611         estimate D2E/DX2                !
 ! A22   A(7,8,9)              121.658          estimate D2E/DX2                !
 ! A23   A(7,8,19)             121.8681         estimate D2E/DX2                !
 ! A24   A(9,8,19)             116.4716         estimate D2E/DX2                !
 ! A25   A(8,9,10)             120.8957         estimate D2E/DX2                !
 ! A26   A(8,9,29)             120.9546         estimate D2E/DX2                !
 ! A27   A(10,9,29)            118.1416         estimate D2E/DX2                !
 ! A28   A(9,10,11)            121.5452         estimate D2E/DX2                !
 ! A29   A(9,10,30)            119.679          estimate D2E/DX2                !
 ! A30   A(11,10,30)           118.7745         estimate D2E/DX2                !
 ! A31   A(10,11,12)           118.7738         estimate D2E/DX2                !
 ! A32   A(10,11,18)           118.6903         estimate D2E/DX2                !
 ! A33   A(12,11,18)           122.5314         estimate D2E/DX2                !
 ! A34   A(11,12,13)           122.1414         estimate D2E/DX2                !
 ! A35   A(11,12,17)           113.6264         estimate D2E/DX2                !
 ! A36   A(13,12,17)           124.2319         estimate D2E/DX2                !
 ! A37   A(12,13,14)           114.8386         estimate D2E/DX2                !
 ! A38   A(12,13,31)           126.2993         estimate D2E/DX2                !
 ! A39   A(14,13,31)           118.8506         estimate D2E/DX2                !
 ! A40   A(13,14,15)           123.0432         estimate D2E/DX2                !
 ! A41   A(13,14,32)           121.8171         estimate D2E/DX2                !
 ! A42   A(15,14,32)           115.1394         estimate D2E/DX2                !
 ! A43   A(14,15,16)           117.3266         estimate D2E/DX2                !
 ! A44   A(15,16,17)           124.883          estimate D2E/DX2                !
 ! A45   A(15,16,33)           117.1301         estimate D2E/DX2                !
 ! A46   A(17,16,33)           117.9869         estimate D2E/DX2                !
 ! A47   A(12,17,16)           115.6734         estimate D2E/DX2                !
 ! A48   A(11,18,19)           121.3113         estimate D2E/DX2                !
 ! A49   A(11,18,34)           119.5326         estimate D2E/DX2                !
 ! A50   A(19,18,34)           119.1444         estimate D2E/DX2                !
 ! A51   A(8,19,18)            121.0826         estimate D2E/DX2                !
 ! A52   A(8,19,35)            120.629          estimate D2E/DX2                !
 ! A53   A(18,19,35)           118.2875         estimate D2E/DX2                !
 ! A54   A(7,20,21)            121.0766         estimate D2E/DX2                !
 ! A55   A(7,20,36)            120.6381         estimate D2E/DX2                !
 ! A56   A(21,20,36)           118.2845         estimate D2E/DX2                !
 ! A57   A(4,21,20)            121.3139         estimate D2E/DX2                !
 ! A58   A(4,21,37)            119.5265         estimate D2E/DX2                !
 ! A59   A(20,21,37)           119.1479         estimate D2E/DX2                !
 ! A60   A(3,22,23)            115.6721         estimate D2E/DX2                !
 ! A61   A(22,23,24)           124.881          estimate D2E/DX2                !
 ! A62   A(22,23,38)           117.9893         estimate D2E/DX2                !
 ! A63   A(24,23,38)           117.1296         estimate D2E/DX2                !
 ! A64   A(1,24,23)            117.3266         estimate D2E/DX2                !
 ! D1    D(24,1,2,3)            -0.0496         estimate D2E/DX2                !
 ! D2    D(24,1,2,26)         -178.8911         estimate D2E/DX2                !
 ! D3    D(25,1,2,3)           179.7475         estimate D2E/DX2                !
 ! D4    D(25,1,2,26)            0.906          estimate D2E/DX2                !
 ! D5    D(2,1,24,23)            0.3198         estimate D2E/DX2                !
 ! D6    D(25,1,24,23)        -179.4897         estimate D2E/DX2                !
 ! D7    D(1,2,3,4)            179.7369         estimate D2E/DX2                !
 ! D8    D(1,2,3,22)            -0.4764         estimate D2E/DX2                !
 ! D9    D(26,2,3,4)            -1.522          estimate D2E/DX2                !
 ! D10   D(26,2,3,22)          178.2647         estimate D2E/DX2                !
 ! D11   D(2,3,4,5)            170.8083         estimate D2E/DX2                !
 ! D12   D(2,3,4,21)            -9.9749         estimate D2E/DX2                !
 ! D13   D(22,3,4,5)            -8.9993         estimate D2E/DX2                !
 ! D14   D(22,3,4,21)          170.2176         estimate D2E/DX2                !
 ! D15   D(2,3,22,23)            0.6767         estimate D2E/DX2                !
 ! D16   D(4,3,22,23)         -179.5204         estimate D2E/DX2                !
 ! D17   D(3,4,5,6)            179.9526         estimate D2E/DX2                !
 ! D18   D(3,4,5,27)            -0.4632         estimate D2E/DX2                !
 ! D19   D(21,4,5,6)             0.7053         estimate D2E/DX2                !
 ! D20   D(21,4,5,27)         -179.7106         estimate D2E/DX2                !
 ! D21   D(3,4,21,20)         -179.7205         estimate D2E/DX2                !
 ! D22   D(3,4,21,37)           -0.9778         estimate D2E/DX2                !
 ! D23   D(5,4,21,20)           -0.5031         estimate D2E/DX2                !
 ! D24   D(5,4,21,37)          178.2397         estimate D2E/DX2                !
 ! D25   D(4,5,6,7)             -0.4582         estimate D2E/DX2                !
 ! D26   D(4,5,6,28)          -179.421          estimate D2E/DX2                !
 ! D27   D(27,5,6,7)           179.9614         estimate D2E/DX2                !
 ! D28   D(27,5,6,28)            0.9986         estimate D2E/DX2                !
 ! D29   D(5,6,7,8)           -179.48           estimate D2E/DX2                !
 ! D30   D(5,6,7,20)            -0.0036         estimate D2E/DX2                !
 ! D31   D(28,6,7,8)            -0.5465         estimate D2E/DX2                !
 ! D32   D(28,6,7,20)          178.93           estimate D2E/DX2                !
 ! D33   D(6,7,8,9)            128.229          estimate D2E/DX2                !
 ! D34   D(6,7,8,19)           -51.2073         estimate D2E/DX2                !
 ! D35   D(20,7,8,9)           -51.2192         estimate D2E/DX2                !
 ! D36   D(20,7,8,19)          129.3445         estimate D2E/DX2                !
 ! D37   D(6,7,20,21)            0.2004         estimate D2E/DX2                !
 ! D38   D(6,7,20,36)          179.8609         estimate D2E/DX2                !
 ! D39   D(8,7,20,21)          179.6757         estimate D2E/DX2                !
 ! D40   D(8,7,20,36)           -0.6639         estimate D2E/DX2                !
 ! D41   D(7,8,9,10)          -179.4771         estimate D2E/DX2                !
 ! D42   D(7,8,9,29)            -0.5297         estimate D2E/DX2                !
 ! D43   D(19,8,9,10)           -0.0119         estimate D2E/DX2                !
 ! D44   D(19,8,9,29)          178.9356         estimate D2E/DX2                !
 ! D45   D(7,8,19,18)          179.6676         estimate D2E/DX2                !
 ! D46   D(7,8,19,35)           -0.6716         estimate D2E/DX2                !
 ! D47   D(9,8,19,18)            0.2036         estimate D2E/DX2                !
 ! D48   D(9,8,19,35)          179.8644         estimate D2E/DX2                !
 ! D49   D(8,9,10,11)           -0.449          estimate D2E/DX2                !
 ! D50   D(8,9,10,30)          179.9661         estimate D2E/DX2                !
 ! D51   D(29,9,10,11)        -179.4254         estimate D2E/DX2                !
 ! D52   D(29,9,10,30)           0.9898         estimate D2E/DX2                !
 ! D53   D(9,10,11,12)         179.9474         estimate D2E/DX2                !
 ! D54   D(9,10,11,18)           0.701          estimate D2E/DX2                !
 ! D55   D(30,10,11,12)         -0.4642         estimate D2E/DX2                !
 ! D56   D(30,10,11,18)       -179.7105         estimate D2E/DX2                !
 ! D57   D(10,11,12,13)        170.8026         estimate D2E/DX2                !
 ! D58   D(10,11,12,17)         -8.9969         estimate D2E/DX2                !
 ! D59   D(18,11,12,13)         -9.9816         estimate D2E/DX2                !
 ! D60   D(18,11,12,17)        170.2189         estimate D2E/DX2                !
 ! D61   D(10,11,18,19)         -0.504          estimate D2E/DX2                !
 ! D62   D(10,11,18,34)        178.2442         estimate D2E/DX2                !
 ! D63   D(12,11,18,19)       -179.7205         estimate D2E/DX2                !
 ! D64   D(12,11,18,34)         -0.9723         estimate D2E/DX2                !
 ! D65   D(11,12,13,14)        179.7392         estimate D2E/DX2                !
 ! D66   D(11,12,13,31)         -1.5136         estimate D2E/DX2                !
 ! D67   D(17,12,13,14)         -0.483          estimate D2E/DX2                !
 ! D68   D(17,12,13,31)        178.2642         estimate D2E/DX2                !
 ! D69   D(11,12,17,16)       -179.5224         estimate D2E/DX2                !
 ! D70   D(13,12,17,16)          0.683          estimate D2E/DX2                !
 ! D71   D(12,13,14,15)         -0.0421         estimate D2E/DX2                !
 ! D72   D(12,13,14,32)        179.7505         estimate D2E/DX2                !
 ! D73   D(31,13,14,15)       -178.8894         estimate D2E/DX2                !
 ! D74   D(31,13,14,32)          0.9033         estimate D2E/DX2                !
 ! D75   D(13,14,15,16)          0.3118         estimate D2E/DX2                !
 ! D76   D(32,14,15,16)       -179.4936         estimate D2E/DX2                !
 ! D77   D(14,15,16,17)         -0.0906         estimate D2E/DX2                !
 ! D78   D(14,15,16,33)        179.8725         estimate D2E/DX2                !
 ! D79   D(15,16,17,12)         -0.3829         estimate D2E/DX2                !
 ! D80   D(33,16,17,12)        179.6543         estimate D2E/DX2                !
 ! D81   D(11,18,19,8)           0.0521         estimate D2E/DX2                !
 ! D82   D(11,18,19,35)       -179.6164         estimate D2E/DX2                !
 ! D83   D(34,18,19,8)        -178.7009         estimate D2E/DX2                !
 ! D84   D(34,18,19,35)          1.6306         estimate D2E/DX2                !
 ! D85   D(7,20,21,4)            0.0507         estimate D2E/DX2                !
 ! D86   D(7,20,21,37)        -178.6968         estimate D2E/DX2                !
 ! D87   D(36,20,21,4)        -179.6176         estimate D2E/DX2                !
 ! D88   D(36,20,21,37)          1.635          estimate D2E/DX2                !
 ! D89   D(3,22,23,24)          -0.3761         estimate D2E/DX2                !
 ! D90   D(3,22,23,38)         179.6505         estimate D2E/DX2                !
 ! D91   D(22,23,24,1)          -0.0983         estimate D2E/DX2                !
 ! D92   D(38,23,24,1)         179.8753         estimate D2E/DX2                !
 --------------------------------------------------------------------------------
 Number of steps in this run=    228 maximum allowed number of steps=    228.
 GradGradGradGradGradGradGradGradGradGradGradGradGradGradGradGradGradGrad

                    Distance matrix (angstroms):
                    1          2          3          4          5
     1  C    0.000000
     2  C    1.373265   0.000000
     3  C    2.319359   1.379269   0.000000
     4  N    3.696995   2.489827   1.465179   0.000000
     5  C    4.745638   3.698339   2.432143   1.360191   0.000000
     6  C    6.044807   4.890427   3.734840   2.406825   1.397718
     7  C    6.478079   5.180516   4.290554   2.825973   2.429593
     8  C    7.943937   6.631521   5.767028   4.302536   3.791172
     9  C    8.693225   7.363602   6.609082   5.170776   4.826939
    10  C   10.081386   8.746751   7.984583   6.536028   6.106509
    11  N   10.758444   9.431973   8.592827   7.128492   6.536022
    12  C   12.217464  10.886301  10.057174   8.592822   7.984562
    13  C   13.063684  11.745379  10.886282   9.431955   8.746727
    14  C   14.389737  13.063756  12.217520  10.758499  10.081432
    15  N   14.879903  13.542225  12.731236  11.267294  10.651990
    16  C   14.083293  12.745812  11.969147  10.514648   9.971430
    17  N   12.747237  11.411883  10.633026   9.179721   8.655416
    18  C   10.190867   8.897834   7.988322   6.546703   5.832679
    19  C    8.818489   7.541807   6.609392   5.179832   4.463776
    20  C    5.694086   4.332961   3.762408   2.402201   2.736122
    21  C    4.296254   2.934796   2.473776   1.355324   2.336034
    22  N    2.716989   2.409543   1.346686   2.354110   2.666685
    23  C    2.285536   2.703049   2.272523   3.579153   4.002683
    24  N    1.341354   2.386211   2.687066   4.149199   4.897988
    25  H    1.088703   2.155846   3.334992   4.628555   5.758743
    26  H    2.115461   1.077516   2.196108   2.821326   4.155689
    27  H    4.771978   3.979211   2.610343   2.111993   1.088581
    28  H    6.883770   5.816261   4.571876   3.373040   2.139749
    29  H    8.340657   7.027567   6.377515   5.015619   4.878846
    30  H   10.735376   9.404177   8.710155   7.292242   6.952550
    31  H   12.857227  11.562806  10.681245   9.252947   8.518329
    32  H   15.188922  13.873148  13.012913  11.564432  10.849177
    33  H   14.629252  13.297076  12.557272  11.120629  10.632138
    34  H   10.906738   9.644030   8.701248   7.295003   6.496708
    35  H    8.567646   7.353478   6.371391   5.025696   4.201736
    36  H    6.322408   4.953500   4.616907   3.370042   3.825234
    37  H    3.948825   2.608879   2.693718   2.112423   3.321411
    38  H    3.261869   3.789203   3.260611   4.435084   4.604894
                    6          7          8          9         10
     6  C    0.000000
     7  C    1.395185   0.000000
     8  C    2.507872   1.476573   0.000000
     9  C    3.635462   2.507880   1.395227   0.000000
    10  C    4.826948   3.791187   2.429622   1.397739   0.000000
    11  N    5.170781   4.302559   2.825996   2.406811   1.360107
    12  C    6.609072   5.767047   4.290574   3.734838   2.432097
    13  C    7.363587   6.631526   5.180502   4.890381   3.698229
    14  C    8.693283   7.944016   6.478146   6.044836   4.745614
    15  N    9.270526   8.443734   6.968867   6.282852   4.897961
    16  C    8.619325   7.724685   6.278452   5.396690   4.002707
    17  N    7.314771   6.396824   4.960645   4.060428   2.666702
    18  C    4.462589   3.797911   2.435410   2.742037   2.335922
    19  C    3.119755   2.511714   1.396698   2.373756   2.735991
    20  C    2.373845   1.396774   2.511695   3.119734   4.463753
    21  C    2.742060   2.435389   3.797851   4.462553   5.832646
    22  N    4.060398   4.960581   6.396778   7.314736   8.655398
    23  C    5.396652   6.278382   7.724631   8.619284   9.971407
    24  N    6.282847   6.968817   8.443689   9.270487  10.651969
    25  H    7.015173   7.332745   8.776499   9.466118  10.849138
    26  H    5.151373   5.153780   6.529881   7.158587   8.518268
    27  H    2.155372   3.410542   4.661641   5.730943   6.952554
    28  H    1.089928   2.167664   2.749767   3.893579   4.878814
    29  H    3.893631   2.749782   2.167728   1.089949   2.139802
    30  H    5.730958   4.661648   3.410585   2.155370   1.088629
    31  H    7.158652   6.529989   5.153856   5.151446   4.155694
    32  H    9.466166   8.776577   7.332805   7.015214   5.758732
    33  H    9.312016   8.385601   6.983433   5.958494   4.604894
    34  H    5.152784   4.658971   3.408099   3.826492   3.321410
    35  H    2.971639   2.750008   2.165964   3.377857   3.825208
    36  H    3.377881   2.166043   2.750057   2.971731   4.201826
    37  H    3.826439   3.408061   4.658906   5.152763   6.496695
    38  H    5.958493   6.983388   8.385584   9.311992  10.632136
                   11         12         13         14         15
    11  N    0.000000
    12  C    1.465174   0.000000
    13  C    2.489795   1.379204   0.000000
    14  C    3.697041   2.319387   1.373337   0.000000
    15  N    4.149223   2.687098   2.386240   1.341339   0.000000
    16  C    3.579176   2.272554   2.702993   2.285451   1.334437
    17  N    2.354119   1.346695   2.409459   2.716939   2.369075
    18  C    1.355277   2.473700   2.934738   4.296267   5.056867
    19  C    2.402144   3.762343   4.332917   5.694114   6.410508
    20  C    5.179816   6.609378   7.541768   8.818520   9.237703
    21  C    6.546660   7.988282   8.897767  10.190873  10.627288
    22  N    9.179692  10.632986  11.411840  12.747266  13.298687
    23  C   10.514612  11.969100  12.745761  14.083314  14.635046
    24  N   11.267272  12.731209  13.542196  14.879944  15.404836
    25  H   11.564380  13.012864  13.873077  15.188924  15.657832
    26  H    9.252871  10.681177  11.562707  12.857203  13.300026
    27  H    7.292253   8.710148   9.404184  10.735452  11.347792
    28  H    5.015614   6.377486   7.027566   8.340721   8.972834
    29  H    3.373035   4.571883   5.816217   6.883794   6.965189
    30  H    2.111982   2.610365   3.979160   4.771992   4.623216
    31  H    2.821415   2.196156   1.077591   2.115524   3.341590
    32  H    4.628607   3.335033   2.155924   1.088746   2.055568
    33  H    4.435078   3.260624   3.789151   3.261798   2.069468
    34  H    2.112509   2.693754   2.608916   3.948919   4.938388
    35  H    3.370107   4.616963   4.953585   6.322564   7.178535
    36  H    5.025784   6.371495   7.353539   8.567781   8.905266
    37  H    7.294973   8.701231   9.643976  10.906761  11.289783
    38  H   11.120627  12.557254  13.297072  14.629316  15.202750
                   16         17         18         19         20
    16  C    0.000000
    17  N    1.337837   0.000000
    18  C    4.732947   3.616578   0.000000
    19  C    5.967718   4.748890   1.400338   0.000000
    20  C    8.440726   7.114076   4.844868   3.648108   0.000000
    21  C    9.823751   8.493152   6.128414   4.844831   1.400321
    22  N   12.573392  11.248207   8.493166   7.114076   4.748935
    23  C   13.900354  12.573385   9.823757   8.440719   5.967750
    24  N   14.635052  13.298686  10.627322   9.237719   6.410518
    25  H   14.843022  13.512431  11.035633   9.679616   6.422999
    26  H   12.485498  11.164947   8.799095   7.492919   4.082265
    27  H   10.712733   9.418770   6.508051   5.167469   3.824700
    28  H    8.406563   7.152387   4.199269   2.973794   3.379709
    29  H    5.944413   4.641162   3.830493   3.379652   2.973733
    30  H    3.522594   2.267985   3.319317   3.824618   5.167411
    31  H    3.779035   3.409690   2.747909   4.082322   7.492996
    32  H    3.248534   3.803603   5.031445   6.423024   9.679653
    33  H    1.086258   2.081750   5.670115   6.828914   9.021831
    34  H    4.903156   3.998982   1.084727   2.148746   5.745029
    35  H    6.869297   5.709910   2.144055   1.090354   3.905721
    36  H    8.067258   6.771565   4.898639   3.905762   1.090251
    37  H   10.445492   9.130258   6.970767   5.744979   2.148706
    38  H   14.495313  13.182340  10.387133   9.021877   6.828973
                   21         22         23         24         25
    21  C    0.000000
    22  N    3.616631   0.000000
    23  C    4.732989   1.337829   0.000000
    24  N    5.056884   2.369121   1.334519   0.000000
    25  H    5.031437   3.803606   3.248552   2.055499   0.000000
    26  H    2.747862   3.409662   3.779021   3.341537   2.467423
    27  H    3.319364   2.267934   3.522536   4.623218   5.842922
    28  H    3.830495   4.641126   5.944370   6.965191   7.895857
    29  H    4.199219   7.152383   8.406550   8.972796   9.062726
    30  H    6.507990   9.418740  10.712695  11.347742  11.461664
    31  H    8.799132  11.164988  12.485530  13.300092  13.678802
    32  H   11.035639  13.512453  14.843037  15.657874  15.994150
    33  H   10.387081  13.182324  14.495290  15.202719  15.365177
    34  H    6.970766   9.130250  10.445474  11.289801  11.766403
    35  H    4.898526   6.771449   8.067134   8.905177   9.453658
    36  H    2.143922   5.709834   6.869206   7.178411   6.925566
    37  H    1.084651   3.998920   4.903095   4.938300   4.490504
    38  H    5.670175   2.081767   1.086256   2.069534   4.119034
                   26         27         28         29         30
    26  H    0.000000
    27  H    4.657892   0.000000
    28  H    6.166348   2.450958   0.000000
    29  H    6.773352   5.822800   4.328822   0.000000
    30  H    9.122401   7.815623   5.822776   2.450943   0.000000
    31  H   11.414600   9.122489   6.773437   6.166429   4.657967
    32  H   13.678776  11.461734   9.062787   7.895900   5.842968
    33  H   13.011901  11.390891   9.140860   6.344901   3.907513
    34  H    9.581580   7.071285   4.750668   4.914943   4.214259
    35  H    7.389477   4.770336   2.702488   4.308644   4.913768
    36  H    4.487184   4.913745   4.308655   2.702497   4.770386
    37  H    2.066204   4.214183   4.914867   4.750619   7.071243
    38  H    4.864796   3.907504   6.344903   9.140862  11.390871
                   31         32         33         34         35
    31  H    0.000000
    32  H    2.467417   0.000000
    33  H    4.864813   4.119037   0.000000
    34  H    2.066258   4.490556   5.928317   0.000000
    35  H    4.487336   6.925707   7.781077   2.445513   0.000000
    36  H    7.389652   9.453799   8.594684   5.844079   4.342897
    37  H    9.581632  11.766428  10.955492   7.835346   5.843948
    38  H   13.011983  15.365238  15.100849  10.955525   8.594622
                   36         37         38
    36  H    0.000000
    37  H    2.445418   0.000000
    38  H    7.781008   5.928257   0.000000
 Framework group  C1[X(C18H14N6)]
 Deg. of freedom   108
                         Standard orientation:                         
 ---------------------------------------------------------------------
 Center     Atomic      Atomic             Coordinates (Angstroms)
 Number     Number       Type             X           Y           Z
 ---------------------------------------------------------------------
      1          6           0        7.144246    0.851832   -0.540834
      2          6           0        5.786295    1.003747   -0.677750
      3          6           0        5.028274    0.057082   -0.020777
      4          7           0        3.563552    0.070770   -0.054690
      5          6           0        2.886942   -0.993984    0.453855
      6          6           0        1.490022   -1.041187    0.452101
      7          6           0        0.738181    0.013583   -0.066297
      8          6           0       -0.738141   -0.013616   -0.066370
      9          6           0       -1.490004    1.041126    0.452164
     10          6           0       -2.886945    0.993901    0.453834
     11          7           0       -3.563535   -0.070771   -0.054682
     12          6           0       -5.028252   -0.057135   -0.020742
     13          6           0       -5.786268   -1.003671   -0.677770
     14          6           0       -7.144291   -0.851764   -0.540835
     15          7           0       -7.701211    0.136544    0.174901
     16          6           0       -6.877372    1.003400    0.766990
     17          7           0       -5.541981    0.957611    0.700341
     18          6           0       -2.855868   -1.110602   -0.559395
     19          6           0       -1.455651   -1.099175   -0.573822
     20          6           0        1.455634    1.099260   -0.573787
     21          6           0        2.855835    1.110637   -0.559384
     22          7           0        5.541966   -0.957668    0.700309
     23          6           0        6.877349   -1.003464    0.766957
     24          7           0        7.701206   -0.136462    0.174917
     25          1           0        7.848755    1.532977   -1.015157
     26          1           0        5.411950    1.812126   -1.283910
     27          1           0        3.454006   -1.827833    0.863907
     28          1           0        1.004745   -1.917079    0.882522
     29          1           0       -1.004732    1.917071    0.882535
     30          1           0       -3.453978    1.827806    0.863943
     31          1           0       -5.411999   -1.812131   -1.284003
     32          1           0       -7.848791   -1.532941   -1.015226
     33          1           0       -7.331812    1.803695    1.344024
     34          1           0       -3.381047   -1.979068   -0.942261
     35          1           0       -0.936237   -1.959192   -0.997440
     36          1           0        0.936343    1.959252   -0.997342
     37          1           0        3.381057    1.979037   -0.942127
     38          1           0        7.331826   -1.803706    1.344032
 ---------------------------------------------------------------------
 Rotational constants (GHZ):           1.5029067           0.0665771           0.0652024
   364 basis functions,   656 primitive gaussians,   388 cartesian basis functions
    81 alpha electrons       81 beta electrons
       nuclear repulsion energy      1729.2693902941 Hartrees.
 NAtoms=   38 NActive=   38 NUniq=   38 SFac= 1.00D+00 NAtFMM=   60 NAOKFM=F Big=F
   1 Symmetry operations used in ECPInt.
 ECPInt:  NShTT=   14878 NPrTT=   59694 LenC2=   11702 LenP2D=   31222.
 LDataN:  DoStor=T MaxTD1= 4 Len=   56
 ExpMin= 1.22D-01 ExpMax= 1.71D+03 ExpMxC= 2.58D+02 IAcc=3 IRadAn=         5 AccDes= 0.00D+00
 Harris functional with IExCor=  402 and IRadAn=       5 diagonalized for initial guess.
 HarFok:  IExCor=  402 AccDes= 0.00D+00 IRadAn=         5 IDoV= 1 UseB2=F ITyADJ=14
 ICtDFT=  3500011 ScaDFX=  1.000000  1.000000  1.000000  1.000000
 FoFCou: FMM=F IPFlag=           0 FMFlag=      100000 FMFlg1=           0
         NFxFlg=           0 DoJE=T BraDBF=F KetDBF=T FulRan=T
         wScrn=  0.000000 ICntrl=       500 IOpCl=  0 I1Cent=   200000004 NGrid=           0
         NMat0=    1 NMatS0=      1 NMatT0=    0 NMatD0=    1 NMtDS0=    0 NMtDT0=    0
 Petite list used in FoFCou.
 Integral accuracy reduced to 1.0D-05 until final iterations.
 EnCoef did     1 forward-backward iterations
 Failed to achieve initial convergence to 1.0D-08 in 10 cycles.
 Switch to full accuracy anyway.
 SCF Done:  E(RB3LYP) =  -1021.49845141     A.U. after   18 cycles
            NFock= 18  Conv=0.46D-08     -V/T= 2.0099
 QCSCF skips out because SCF is already converged.

 **********************************************************************

            Population analysis using the SCF Density.

 **********************************************************************

 Orbital symmetries:
       Occupied  (A) (A) (A) (A) (A) (A) (A) (A) (A) (A) (A) (A)
                 (A) (A) (A) (A) (A) (A) (A) (A) (A) (A) (A) (A)
                 (A) (A) (A) (A) (A) (A) (A) (A) (A) (A) (A) (A)
                 (A) (A) (A) (A) (A) (A) (A) (A) (A) (A) (A) (A)
                 (A) (A) (A) (A) (A) (A) (A) (A) (A) (A) (A) (A)
                 (A) (A) (A) (A) (A) (A) (A) (A) (A) (A) (A) (A)
                 (A) (A) (A) (A) (A) (A) (A) (A) (A)
       Virtual   (A) (A) (A) (A) (A) (A) (A) (A) (A) (A) (A) (A)
                 (A) (A) (A) (A) (A) (A) (A) (A) (A) (A) (A) (A)
                 (A) (A) (A) (A) (A) (A) (A) (A) (A) (A) (A) (A)
                 (A) (A) (A) (A) (A) (A) (A) (A) (A) (A) (A) (A)
                 (A) (A) (A) (A) (A) (A) (A) (A) (A) (A) (A) (A)
                 (A) (A) (A) (A) (A) (A) (A) (A) (A) (A) (A) (A)
                 (A) (A) (A) (A) (A) (A) (A) (A) (A) (A) (A) (A)
                 (A) (A) (A) (A) (A) (A) (A) (A) (A) (A) (A) (A)
                 (A) (A) (A) (A) (A) (A) (A) (A) (A) (A) (A) (A)
                 (A) (A) (A) (A) (A) (A) (A) (A) (A) (A) (A) (A)
                 (A) (A) (A) (A) (A) (A) (A) (A) (A) (A) (A) (A)
                 (A) (A) (A) (A) (A) (A) (A) (A) (A) (A) (A) (A)
                 (A) (A) (A) (A) (A) (A) (A) (A) (A) (A) (A) (A)
                 (A) (A) (A) (A) (A) (A) (A) (A) (A) (A) (A) (A)
                 (A) (A) (A) (A) (A) (A) (A) (A) (A) (A) (A) (A)
                 (A) (A) (A) (A) (A) (A) (A) (A) (A) (A) (A) (A)
                 (A) (A) (A) (A) (A) (A) (A) (A) (A) (A) (A) (A)
                 (A) (A) (A) (A) (A) (A) (A) (A) (A) (A) (A) (A)
                 (A) (A) (A) (A) (A) (A) (A) (A) (A) (A) (A) (A)
                 (A) (A) (A) (A) (A) (A) (A) (A) (A) (A) (A) (A)
                 (A) (A) (A) (A) (A) (A) (A) (A) (A) (A) (A) (A)
                 (A) (A) (A) (A) (A) (A) (A) (A) (A) (A) (A) (A)
                 (A) (A) (A) (A) (A) (A) (A) (A) (A) (A) (A) (A)
                 (A) (A) (A) (A) (A) (A) (A)
 The electronic state is 1-A.
 Alpha  occ. eigenvalues --  -14.71341 -14.71341 -14.57057 -14.57056 -14.54447
 Alpha  occ. eigenvalues --  -14.54446 -10.53270 -10.53270 -10.52819 -10.52819
 Alpha  occ. eigenvalues --  -10.52324 -10.52324 -10.51303 -10.51295 -10.49123
 Alpha  occ. eigenvalues --  -10.49121 -10.48803 -10.48801 -10.47271 -10.47270
 Alpha  occ. eigenvalues --  -10.45449 -10.45448 -10.44023 -10.44022  -1.29615
 Alpha  occ. eigenvalues --   -1.29577  -1.20906  -1.20857  -1.14782  -1.11691
 Alpha  occ. eigenvalues --   -1.10620  -1.08715  -1.06214  -1.06004  -1.03543
 Alpha  occ. eigenvalues --   -1.02710  -0.97798  -0.95436  -0.93998  -0.93065
 Alpha  occ. eigenvalues --   -0.89977  -0.88560  -0.87882  -0.87598  -0.83572
 Alpha  occ. eigenvalues --   -0.82074  -0.81411  -0.79529  -0.79129  -0.75932
 Alpha  occ. eigenvalues --   -0.75598  -0.75087  -0.75025  -0.73947  -0.73810
 Alpha  occ. eigenvalues --   -0.72718  -0.72282  -0.72103  -0.70495  -0.70399
 Alpha  occ. eigenvalues --   -0.68907  -0.67605  -0.67070  -0.66473  -0.65587
 Alpha  occ. eigenvalues --   -0.65340  -0.65289  -0.63137  -0.63137  -0.62094
 Alpha  occ. eigenvalues --   -0.58923  -0.56046  -0.55893  -0.53968  -0.53610
 Alpha  occ. eigenvalues --   -0.53174  -0.53148  -0.52122  -0.51781  -0.47387
 Alpha  occ. eigenvalues --   -0.47386
 Alpha virt. eigenvalues --   -0.37460  -0.33611  -0.31376  -0.30911  -0.26359
 Alpha virt. eigenvalues --   -0.25883  -0.25067  -0.24727  -0.18115  -0.17943
 Alpha virt. eigenvalues --   -0.17570  -0.16356  -0.15321  -0.14808  -0.13835
 Alpha virt. eigenvalues --   -0.12538  -0.10638  -0.10593  -0.10066  -0.09828
 Alpha virt. eigenvalues --   -0.08978  -0.08942  -0.08400  -0.07720  -0.06480
 Alpha virt. eigenvalues --   -0.06220  -0.04866  -0.03874  -0.03345  -0.02791
 Alpha virt. eigenvalues --   -0.02677  -0.02441  -0.01745  -0.01251  -0.00968
 Alpha virt. eigenvalues --    0.00394   0.01432   0.01889   0.02398   0.02935
 Alpha virt. eigenvalues --    0.04628   0.06618   0.07002   0.08855   0.09041
 Alpha virt. eigenvalues --    0.10253   0.10356   0.12131   0.12732   0.12836
 Alpha virt. eigenvalues --    0.13367   0.13459   0.13530   0.14016   0.14481
 Alpha virt. eigenvalues --    0.14930   0.16169   0.17026   0.17818   0.18020
 Alpha virt. eigenvalues --    0.19011   0.19124   0.19466   0.19828   0.21573
 Alpha virt. eigenvalues --    0.21738   0.23318   0.23529   0.23935   0.24654
 Alpha virt. eigenvalues --    0.25156   0.25478   0.28042   0.28583   0.28593
 Alpha virt. eigenvalues --    0.29804   0.29925   0.30326   0.30997   0.31988
 Alpha virt. eigenvalues --    0.32096   0.32541   0.33099   0.33991   0.36201
 Alpha virt. eigenvalues --    0.36393   0.36488   0.37212   0.38964   0.39012
 Alpha virt. eigenvalues --    0.39469   0.40005   0.40324   0.41084   0.41495
 Alpha virt. eigenvalues --    0.41970   0.42053   0.42749   0.43167   0.43957
 Alpha virt. eigenvalues --    0.45001   0.45125   0.46132   0.46362   0.46474
 Alpha virt. eigenvalues --    0.47328   0.47646   0.48253   0.48728   0.50117
 Alpha virt. eigenvalues --    0.50431   0.52371   0.52465   0.53674   0.54843
 Alpha virt. eigenvalues --    0.55616   0.55670   0.56971   0.57773   0.58322
 Alpha virt. eigenvalues --    0.60494   0.61260   0.61872   0.62840   0.63408
 Alpha virt. eigenvalues --    0.64336   0.64963   0.66827   0.67084   0.69527
 Alpha virt. eigenvalues --    0.69684   0.72330   0.73295   0.73691   0.73827
 Alpha virt. eigenvalues --    0.74097   0.75188   0.77480   0.78046   0.81904
 Alpha virt. eigenvalues --    0.83429   0.84464   0.86650   0.89231   0.90177
 Alpha virt. eigenvalues --    0.92554   0.93080   0.94258   0.95391   0.97800
 Alpha virt. eigenvalues --    0.98535   0.98997   0.99797   1.02014   1.03939
 Alpha virt. eigenvalues --    1.04698   1.05357   1.05558   1.06213   1.08749
 Alpha virt. eigenvalues --    1.08823   1.09268   1.10903   1.13432   1.13733
 Alpha virt. eigenvalues --    1.14034   1.14392   1.15934   1.17881   1.19784
 Alpha virt. eigenvalues --    1.20187   1.20441   1.23097   1.23156   1.23181
 Alpha virt. eigenvalues --    1.24704   1.25059   1.31166   1.33008   1.33022
 Alpha virt. eigenvalues --    1.35065   1.35071   1.40840   1.40886   1.41442
 Alpha virt. eigenvalues --    1.43949   1.46997   1.48508   1.49479   1.49971
 Alpha virt. eigenvalues --    1.51632   1.53399   1.58713   1.59797   1.60324
 Alpha virt. eigenvalues --    1.60334   1.60981   1.63934   1.64176   1.64415
 Alpha virt. eigenvalues --    1.65478   1.66270   1.67190   1.67696   1.69701
 Alpha virt. eigenvalues --    1.69749   1.75337   1.76520   1.80296   1.81077
 Alpha virt. eigenvalues --    1.81995   1.82234   1.83364   1.83856   1.86681
 Alpha virt. eigenvalues --    1.87431   1.87949   1.88180   1.88339   1.89324
 Alpha virt. eigenvalues --    1.91260   1.91547   1.92180   1.93325   1.95796
 Alpha virt. eigenvalues --    1.95802   1.98901   1.99965   2.01704   2.01925
 Alpha virt. eigenvalues --    2.02923   2.03756   2.04355   2.07896   2.10614
 Alpha virt. eigenvalues --    2.14186   2.19082   2.20229   2.21792   2.21801
 Alpha virt. eigenvalues --    2.24043   2.24063   2.28766   2.29786   2.30760
 Alpha virt. eigenvalues --    2.33723   2.33787   2.37714   2.39087   2.39295
 Alpha virt. eigenvalues --    2.39840   2.40621   2.41200   2.41700   2.44383
 Alpha virt. eigenvalues --    2.45312   2.46799   2.47311   2.47601   2.49107
 Alpha virt. eigenvalues --    2.50116   2.50585   2.50651   2.53653   2.55168
 Alpha virt. eigenvalues --    2.57356   2.61064   2.65534   2.66821   2.66845
 Alpha virt. eigenvalues --    2.68791   2.73463   2.77845   2.85058   2.86604
 Alpha virt. eigenvalues --    2.97718   2.98630   3.08376   3.11656   3.13653
 Alpha virt. eigenvalues --    3.16183   3.30924   3.31933
          Condensed to atoms (all electrons):
 Mulliken charges:
               1
     1  C    0.025542
     2  C   -0.121255
     3  C    0.180603
     4  N   -0.082951
     5  C    0.062213
     6  C   -0.085984
     7  C    0.150673
     8  C    0.150677
     9  C   -0.085991
    10  C    0.062138
    11  N   -0.082849
    12  C    0.180648
    13  C   -0.121354
    14  C    0.025514
    15  N   -0.069161
    16  C    0.068015
    17  N   -0.129557
    18  C    0.053200
    19  C   -0.091415
    20  C   -0.091323
    21  C    0.053246
    22  N   -0.129539
    23  C    0.068046
    24  N   -0.069231
    25  H    0.144672
    26  H    0.113014
    27  H    0.189108
    28  H    0.139033
    29  H    0.139042
    30  H    0.189130
    31  H    0.113055
    32  H    0.144693
    33  H    0.149038
    34  H    0.167112
    35  H    0.138060
    36  H    0.138017
    37  H    0.167072
    38  H    0.149047
 Sum of Mulliken charges =   2.00000
 Mulliken charges with hydrogens summed into heavy atoms:
               1
     1  C    0.170215
     2  C   -0.008242
     3  C    0.180603
     4  N   -0.082951
     5  C    0.251321
     6  C    0.053049
     7  C    0.150673
     8  C    0.150677
     9  C    0.053052
    10  C    0.251267
    11  N   -0.082849
    12  C    0.180648
    13  C   -0.008299
    14  C    0.170207
    15  N   -0.069161
    16  C    0.217053
    17  N   -0.129557
    18  C    0.220312
    19  C    0.046645
    20  C    0.046695
    21  C    0.220318
    22  N   -0.129539
    23  C    0.217093
    24  N   -0.069231
 Electronic spatial extent (au):  <R**2>=          14847.1209
 Charge=              2.0000 electrons
 Dipole moment (field-independent basis, Debye):
    X=             -0.0001    Y=             -0.0003    Z=             -2.4157  Tot=              2.4157
   1 Symmetry operations used in ECPInt.
 ECPInt:  NShTT=   14878 NPrTT=   59694 LenC2=   11702 LenP2D=   31222.
 LDataN:  DoStor=T MaxTD1= 5 Len=  102
 Calling FoFJK, ICntrl=      2127 FMM=F ISym2X=0 I1Cent= 0 IOpClX= 0 NMat=1 NMatS=1 NMatT=0.

 GradGradGradGradGradGradGradGradGradGradGradGradGradGradGradGradGradGrad
 FormGI is forming the generalized inverse of G from B-inverse, IUseBI=4.
 Internal  Forces:  Max     0.028913939 RMS     0.005408046
 Step number   1 out of a maximum of  228
 All quantities printed in internal units (Hartrees-Bohrs-Radians)
 Mixed Optimization -- RFO/linear search
 Second derivative matrix not updated -- first step.
 ITU=  0
     Eigenvalues ---    0.00830   0.00830   0.01076   0.01764   0.01764
     Eigenvalues ---    0.01824   0.01824   0.01859   0.01859   0.02107
     Eigenvalues ---    0.02108   0.02125   0.02125   0.02137   0.02137
     Eigenvalues ---    0.02145   0.02145   0.02169   0.02169   0.02186
     Eigenvalues ---    0.02187   0.02236   0.02236   0.02385   0.02386
     Eigenvalues ---    0.02402   0.02402   0.02449   0.02450   0.02453
     Eigenvalues ---    0.02453   0.02515   0.02515   0.02537   0.02537
     Eigenvalues ---    0.15996   0.15996   0.15996   0.15996   0.15997
     Eigenvalues ---    0.15997   0.16000   0.16000   0.16000   0.16000
     Eigenvalues ---    0.16000   0.16000   0.16000   0.16000   0.22000
     Eigenvalues ---    0.22000   0.22308   0.22308   0.22971   0.22971
     Eigenvalues ---    0.23172   0.23172   0.23999   0.23999   0.24549
     Eigenvalues ---    0.24549   0.24998   0.24998   0.24999   0.24999
     Eigenvalues ---    0.25000   0.25000   0.34772   0.34784   0.34819
     Eigenvalues ---    0.34821   0.34958   0.34963   0.34965   0.34972
     Eigenvalues ---    0.34977   0.35249   0.35249   0.35429   0.35438
     Eigenvalues ---    0.36287   0.36296   0.36324   0.36324   0.41771
     Eigenvalues ---    0.41773   0.43744   0.43748   0.45769   0.45772
     Eigenvalues ---    0.46215   0.46216   0.46537   0.46542   0.48412
     Eigenvalues ---    0.48417   0.51388   0.51402   0.52909   0.52919
     Eigenvalues ---    0.53170   0.53170   0.55659   0.55663   0.56387
     Eigenvalues ---    0.56389   0.57916   0.57926
 Linear search not attempted -- first point.
 Iteration  1 RMS(Cart)=  0.02916970 RMS(Int)=  0.00047995
 Iteration  2 RMS(Cart)=  0.00058866 RMS(Int)=  0.00006391
 Iteration  3 RMS(Cart)=  0.00000026 RMS(Int)=  0.00006391
 Variable       Old X    -DE/DX   Delta X   Delta X   Delta X     New X
                                 (Linear)    (Quad)   (Total)
    R1        2.59509   0.02891   0.00000   0.05839   0.05833   2.65343
    R2        2.53479  -0.00980   0.00000  -0.01554  -0.01554   2.51926
    R3        2.05735   0.00546   0.00000   0.01500   0.01500   2.07235
    R4        2.60644   0.01044   0.00000   0.02166   0.02160   2.62804
    R5        2.03621   0.00986   0.00000   0.02613   0.02613   2.06234
    R6        2.76879   0.00507   0.00000   0.01342   0.01342   2.78221
    R7        2.54487  -0.02520   0.00000  -0.04531  -0.04532   2.49955
    R8        2.57039  -0.00227   0.00000  -0.00501  -0.00498   2.56541
    R9        2.56119   0.00143   0.00000   0.00170   0.00173   2.56292
   R10        2.64130  -0.00959   0.00000  -0.02015  -0.02016   2.62115
   R11        2.05712   0.00164   0.00000   0.00452   0.00452   2.06164
   R12        2.63652   0.01024   0.00000   0.02243   0.02239   2.65891
   R13        2.05967   0.00221   0.00000   0.00608   0.00608   2.06575
   R14        2.79032   0.00772   0.00000   0.02121   0.02121   2.81153
   R15        2.63952   0.00932   0.00000   0.02052   0.02049   2.66002
   R16        2.63660   0.01022   0.00000   0.02238   0.02235   2.65894
   R17        2.63938   0.00939   0.00000   0.02065   0.02062   2.66000
   R18        2.64134  -0.00961   0.00000  -0.02019  -0.02020   2.62115
   R19        2.05971   0.00219   0.00000   0.00604   0.00604   2.06575
   R20        2.57023  -0.00220   0.00000  -0.00487  -0.00484   2.56539
   R21        2.05721   0.00161   0.00000   0.00442   0.00442   2.06164
   R22        2.76878   0.00508   0.00000   0.01345   0.01345   2.78223
   R23        2.56110   0.00147   0.00000   0.00178   0.00181   2.56291
   R24        2.60632   0.01050   0.00000   0.02177   0.02171   2.62803
   R25        2.54488  -0.02520   0.00000  -0.04531  -0.04532   2.49957
   R26        2.59523   0.02885   0.00000   0.05827   0.05822   2.65345
   R27        2.03635   0.00980   0.00000   0.02599   0.02599   2.06234
   R28        2.53476  -0.00980   0.00000  -0.01553  -0.01552   2.51924
   R29        2.05743   0.00543   0.00000   0.01491   0.01491   2.07234
   R30        2.52172  -0.00127   0.00000  -0.00317  -0.00311   2.51861
   R31        2.52815   0.00111   0.00000  -0.00035  -0.00029   2.52786
   R32        2.05273   0.00675   0.00000   0.01840   0.01840   2.07113
   R33        2.64626  -0.01267   0.00000  -0.02707  -0.02707   2.61919
   R34        2.04984   0.00342   0.00000   0.00929   0.00929   2.05913
   R35        2.06047   0.00194   0.00000   0.00535   0.00535   2.06582
   R36        2.64622  -0.01266   0.00000  -0.02705  -0.02704   2.61918
   R37        2.06028   0.00201   0.00000   0.00554   0.00554   2.06582
   R38        2.04969   0.00348   0.00000   0.00944   0.00944   2.05913
   R39        2.52813   0.00112   0.00000  -0.00034  -0.00027   2.52786
   R40        2.52188  -0.00135   0.00000  -0.00332  -0.00325   2.51862
   R41        2.05273   0.00675   0.00000   0.01840   0.01840   2.07113
    A1        2.14754  -0.00450   0.00000  -0.01034  -0.01040   2.13714
    A2        2.12615  -0.00068   0.00000  -0.01164  -0.01161   2.11454
    A3        2.00949   0.00518   0.00000   0.02197   0.02201   2.03149
    A4        2.00428  -0.00137   0.00000   0.00288   0.00274   2.00702
    A5        2.07444   0.00341   0.00000   0.01423   0.01429   2.08873
    A6        2.20426  -0.00204   0.00000  -0.01705  -0.01699   2.18727
    A7        2.13173   0.00365   0.00000   0.01391   0.01394   2.14567
    A8        2.16831  -0.00372   0.00000  -0.01428  -0.01435   2.15396
    A9        1.98315   0.00007   0.00000   0.00036   0.00040   1.98354
   A10        2.07295  -0.00225   0.00000  -0.00696  -0.00700   2.06595
   A11        2.13862  -0.00369   0.00000  -0.01242  -0.01245   2.12617
   A12        2.07153   0.00594   0.00000   0.01942   0.01949   2.09102
   A13        2.12130  -0.00146   0.00000  -0.00734  -0.00733   2.11398
   A14        2.07297  -0.00762   0.00000  -0.04423  -0.04426   2.02871
   A15        2.08889   0.00908   0.00000   0.05163   0.05160   2.14050
   A16        2.11007  -0.00292   0.00000  -0.00946  -0.00950   2.10057
   A17        2.06193  -0.00045   0.00000  -0.00622  -0.00620   2.05573
   A18        2.11104   0.00336   0.00000   0.01566   0.01568   2.12672
   A19        2.12337  -0.00056   0.00000  -0.00428  -0.00425   2.11912
   A20        2.03290   0.00207   0.00000   0.01214   0.01208   2.04498
   A21        2.12688  -0.00151   0.00000  -0.00785  -0.00782   2.11906
   A22        2.12333  -0.00056   0.00000  -0.00427  -0.00424   2.11909
   A23        2.12700  -0.00153   0.00000  -0.00793  -0.00790   2.11910
   A24        2.03281   0.00209   0.00000   0.01221   0.01215   2.04497
   A25        2.11003  -0.00291   0.00000  -0.00944  -0.00948   2.10055
   A26        2.11106   0.00336   0.00000   0.01566   0.01568   2.12674
   A27        2.06196  -0.00045   0.00000  -0.00624  -0.00622   2.05574
   A28        2.12136  -0.00147   0.00000  -0.00739  -0.00737   2.11399
   A29        2.08879   0.00910   0.00000   0.05169   0.05166   2.14045
   A30        2.07301  -0.00762   0.00000  -0.04424  -0.04427   2.02874
   A31        2.07299  -0.00226   0.00000  -0.00701  -0.00704   2.06595
   A32        2.07154   0.00593   0.00000   0.01943   0.01950   2.09104
   A33        2.13858  -0.00368   0.00000  -0.01239  -0.01242   2.12615
   A34        2.13177   0.00364   0.00000   0.01388   0.01391   2.14568
   A35        1.98315   0.00006   0.00000   0.00033   0.00036   1.98352
   A36        2.16826  -0.00370   0.00000  -0.01421  -0.01429   2.15397
   A37        2.00431  -0.00137   0.00000   0.00285   0.00271   2.00703
   A38        2.20434  -0.00204   0.00000  -0.01708  -0.01701   2.18733
   A39        2.07433   0.00342   0.00000   0.01428   0.01434   2.08868
   A40        2.14751  -0.00450   0.00000  -0.01033  -0.01039   2.13712
   A41        2.12611  -0.00068   0.00000  -0.01162  -0.01159   2.11452
   A42        2.00956   0.00517   0.00000   0.02194   0.02197   2.03154
   A43        2.04773  -0.00282   0.00000  -0.00935  -0.00926   2.03847
   A44        2.17962   0.00530   0.00000   0.01529   0.01539   2.19501
   A45        2.04431  -0.00060   0.00000   0.00412   0.00406   2.04837
   A46        2.05926  -0.00470   0.00000  -0.01941  -0.01946   2.03979
   A47        2.01888   0.00710   0.00000   0.01576   0.01583   2.03471
   A48        2.11728   0.00035   0.00000  -0.00015  -0.00011   2.11717
   A49        2.08624  -0.00449   0.00000  -0.02462  -0.02464   2.06159
   A50        2.07946   0.00414   0.00000   0.02488   0.02485   2.10432
   A51        2.11329  -0.00400   0.00000  -0.01465  -0.01467   2.09862
   A52        2.10537   0.00427   0.00000   0.02034   0.02034   2.12572
   A53        2.06451  -0.00027   0.00000  -0.00571  -0.00570   2.05881
   A54        2.11319  -0.00398   0.00000  -0.01457  -0.01459   2.09860
   A55        2.10553   0.00424   0.00000   0.02021   0.02021   2.12574
   A56        2.06445  -0.00026   0.00000  -0.00566  -0.00565   2.05881
   A57        2.11733   0.00035   0.00000  -0.00017  -0.00013   2.11719
   A58        2.08613  -0.00448   0.00000  -0.02456  -0.02458   2.06155
   A59        2.07952   0.00413   0.00000   0.02484   0.02482   2.10434
   A60        2.01886   0.00711   0.00000   0.01580   0.01586   2.03472
   A61        2.17959   0.00531   0.00000   0.01533   0.01543   2.19502
   A62        2.05930  -0.00470   0.00000  -0.01942  -0.01948   2.03982
   A63        2.04430  -0.00061   0.00000   0.00409   0.00404   2.04834
   A64        2.04774  -0.00283   0.00000  -0.00938  -0.00929   2.03844
    D1       -0.00087   0.00013   0.00000   0.00351   0.00349   0.00262
    D2       -3.12224   0.00008   0.00000   0.00116   0.00113  -3.12111
    D3        3.13719   0.00006   0.00000   0.00205   0.00206   3.13924
    D4        0.01581   0.00001   0.00000  -0.00030  -0.00031   0.01551
    D5        0.00558  -0.00003   0.00000  -0.00011  -0.00012   0.00547
    D6       -3.13269   0.00005   0.00000   0.00132   0.00131  -3.13137
    D7        3.13700  -0.00000   0.00000   0.00014   0.00016   3.13716
    D8       -0.00831  -0.00007   0.00000  -0.00227  -0.00226  -0.01058
    D9       -0.02656   0.00012   0.00000   0.00313   0.00312  -0.02345
   D10        3.11131   0.00006   0.00000   0.00072   0.00069   3.11200
   D11        2.98117  -0.00048   0.00000  -0.01940  -0.01941   2.96175
   D12       -0.17409  -0.00033   0.00000  -0.01588  -0.01591  -0.19000
   D13       -0.15707  -0.00041   0.00000  -0.01720  -0.01717  -0.17424
   D14        2.97086  -0.00026   0.00000  -0.01367  -0.01366   2.95719
   D15        0.01181  -0.00010   0.00000  -0.00225  -0.00222   0.00959
   D16       -3.13322  -0.00015   0.00000  -0.00445  -0.00441  -3.13763
   D17        3.14077   0.00000   0.00000   0.00038   0.00043   3.14119
   D18       -0.00808   0.00037   0.00000   0.01014   0.00992   0.00184
   D19        0.01231  -0.00007   0.00000  -0.00276  -0.00276   0.00955
   D20       -3.13654   0.00030   0.00000   0.00700   0.00674  -3.12980
   D21       -3.13672  -0.00001   0.00000  -0.00076  -0.00082  -3.13754
   D22       -0.01707   0.00026   0.00000   0.00588   0.00577  -0.01130
   D23       -0.00878   0.00008   0.00000   0.00256   0.00253  -0.00625
   D24        3.11087   0.00035   0.00000   0.00920   0.00912   3.11999
   D25       -0.00800   0.00006   0.00000   0.00148   0.00150  -0.00650
   D26       -3.13149   0.00007   0.00000   0.00228   0.00232  -3.12916
   D27        3.14092  -0.00025   0.00000  -0.00797  -0.00821   3.13271
   D28        0.01743  -0.00024   0.00000  -0.00718  -0.00738   0.01005
   D29       -3.13252  -0.00003   0.00000  -0.00117  -0.00119  -3.13371
   D30       -0.00006   0.00001   0.00000   0.00025   0.00021   0.00015
   D31       -0.00954  -0.00008   0.00000  -0.00222  -0.00229  -0.01183
   D32        3.12292  -0.00004   0.00000  -0.00081  -0.00089   3.12202
   D33        2.23802   0.00117   0.00000   0.04584   0.04580   2.28382
   D34       -0.89374   0.00110   0.00000   0.04409   0.04409  -0.84965
   D35       -0.89394   0.00111   0.00000   0.04424   0.04424  -0.84970
   D36        2.25749   0.00104   0.00000   0.04249   0.04253   2.30001
   D37        0.00350  -0.00001   0.00000  -0.00044  -0.00044   0.00306
   D38        3.13916  -0.00015   0.00000  -0.00429  -0.00432   3.13485
   D39        3.13593   0.00003   0.00000   0.00099   0.00098   3.13692
   D40       -0.01159  -0.00011   0.00000  -0.00285  -0.00290  -0.01449
   D41       -3.13247  -0.00003   0.00000  -0.00118  -0.00121  -3.13367
   D42       -0.00924  -0.00008   0.00000  -0.00241  -0.00248  -0.01172
   D43       -0.00021   0.00002   0.00000   0.00037   0.00033   0.00012
   D44        3.12301  -0.00004   0.00000  -0.00086  -0.00094   3.12207
   D45        3.13579   0.00004   0.00000   0.00109   0.00108   3.13687
   D46       -0.01172  -0.00010   0.00000  -0.00277  -0.00282  -0.01454
   D47        0.00355  -0.00001   0.00000  -0.00049  -0.00048   0.00307
   D48        3.13923  -0.00015   0.00000  -0.00435  -0.00438   3.13485
   D49       -0.00784   0.00006   0.00000   0.00135   0.00137  -0.00647
   D50        3.14100  -0.00025   0.00000  -0.00805  -0.00829   3.13271
   D51       -3.13156   0.00007   0.00000   0.00232   0.00236  -3.12920
   D52        0.01728  -0.00024   0.00000  -0.00709  -0.00729   0.00998
   D53        3.14067   0.00000   0.00000   0.00043   0.00048   3.14115
   D54        0.01224  -0.00007   0.00000  -0.00272  -0.00271   0.00953
   D55       -0.00810   0.00037   0.00000   0.01013   0.00992   0.00182
   D56       -3.13654   0.00030   0.00000   0.00699   0.00673  -3.12981
   D57        2.98107  -0.00048   0.00000  -0.01934  -0.01935   2.96172
   D58       -0.15703  -0.00042   0.00000  -0.01725  -0.01723  -0.17425
   D59       -0.17421  -0.00033   0.00000  -0.01582  -0.01584  -0.19005
   D60        2.97088  -0.00027   0.00000  -0.01373  -0.01372   2.95716
   D61       -0.00880   0.00008   0.00000   0.00259   0.00256  -0.00624
   D62        3.11095   0.00035   0.00000   0.00915   0.00907   3.12002
   D63       -3.13671  -0.00001   0.00000  -0.00073  -0.00080  -3.13751
   D64       -0.01697   0.00026   0.00000   0.00583   0.00572  -0.01125
   D65        3.13704  -0.00000   0.00000   0.00010   0.00012   3.13716
   D66       -0.02642   0.00012   0.00000   0.00303   0.00302  -0.02340
   D67       -0.00843  -0.00007   0.00000  -0.00218  -0.00217  -0.01060
   D68        3.11130   0.00006   0.00000   0.00076   0.00073   3.11202
   D69       -3.13326  -0.00015   0.00000  -0.00444  -0.00440  -3.13766
   D70        0.01192  -0.00010   0.00000  -0.00237  -0.00233   0.00959
   D71       -0.00074   0.00013   0.00000   0.00341   0.00339   0.00266
   D72        3.13724   0.00006   0.00000   0.00203   0.00204   3.13928
   D73       -3.12221   0.00008   0.00000   0.00112   0.00108  -3.12113
   D74        0.01577   0.00001   0.00000  -0.00026  -0.00027   0.01550
   D75        0.00544  -0.00002   0.00000   0.00002   0.00001   0.00545
   D76       -3.13275   0.00005   0.00000   0.00137   0.00136  -3.13139
   D77       -0.00158  -0.00025   0.00000  -0.00544  -0.00542  -0.00700
   D78        3.13937  -0.00008   0.00000  -0.00125  -0.00119   3.13818
   D79       -0.00668   0.00022   0.00000   0.00628   0.00634  -0.00034
   D80        3.13556   0.00005   0.00000   0.00205   0.00212   3.13768
   D81        0.00091  -0.00005   0.00000  -0.00106  -0.00101  -0.00010
   D82       -3.13490   0.00007   0.00000   0.00262   0.00265  -3.13225
   D83       -3.11892  -0.00022   0.00000  -0.00699  -0.00707  -3.12599
   D84        0.02846  -0.00010   0.00000  -0.00331  -0.00341   0.02505
   D85        0.00088  -0.00005   0.00000  -0.00103  -0.00098  -0.00010
   D86       -3.11885  -0.00022   0.00000  -0.00704  -0.00712  -3.12597
   D87       -3.13492   0.00007   0.00000   0.00264   0.00267  -3.13225
   D88        0.02854  -0.00010   0.00000  -0.00337  -0.00347   0.02507
   D89       -0.00656   0.00021   0.00000   0.00613   0.00619  -0.00037
   D90        3.13549   0.00005   0.00000   0.00218   0.00224   3.13774
   D91       -0.00172  -0.00025   0.00000  -0.00528  -0.00526  -0.00698
   D92        3.13942  -0.00009   0.00000  -0.00137  -0.00130   3.13811
         Item               Value     Threshold  Converged?
 Maximum Force            0.028914     0.000450     NO 
 RMS     Force            0.005408     0.000300     NO 
 Maximum Displacement     0.095259     0.001800     NO 
 RMS     Displacement     0.029221     0.001200     NO 
 GradGradGradGradGradGradGradGradGradGradGradGradGradGradGradGradGradGrad

                    Distance matrix (angstroms):
                    1          2          3          4          5
     1  C    0.000000
     2  C    1.404132   0.000000
     3  C    2.357072   1.390701   0.000000
     4  N    3.747643   2.515599   1.472282   0.000000
     5  C    4.779814   3.713434   2.431053   1.357557   0.000000
     6  C    6.072314   4.897749   3.722901   2.390266   1.387052
     7  C    6.504389   5.180506   4.272100   2.800242   2.424072
     8  C    7.981520   6.642038   5.759827   4.288032   3.794544
     9  C    8.730910   7.371597   6.605450   5.161036   4.847616
    10  C   10.107939   8.743733   7.968781   6.513526   6.111193
    11  N   10.770402   9.416295   8.559921   7.088240   6.513538
    12  C   12.236891  10.877845  10.031631   8.559928   7.968799
    13  C   13.099998  11.754705  10.877869   9.416328   8.743780
    14  C   14.453692  13.100002  12.236919  10.770437  10.107987
    15  N   14.921024  13.554773  12.728096  11.256789  10.660337
    16  C   14.097680  12.731033  11.938991  10.477011   9.955114
    17  N   12.762079  11.397754  10.602264   9.141247   8.636893
    18  C   10.212662   8.894582   7.964183   6.515424   5.809186
    19  C    8.856586   7.556080   6.601471   5.165377   4.452804
    20  C    5.725993   4.335341   3.750756   2.390381   2.751257
    21  C    4.342259   2.951783   2.472373   1.356241   2.347927
    22  N    2.717612   2.389455   1.322706   2.340827   2.656240
    23  C    2.270573   2.687341   2.263271   3.575756   3.990819
    24  N    1.333132   2.399493   2.710422   4.178953   4.912073
    25  H    1.096638   2.183446   3.374049   4.680781   5.796847
    26  H    2.163322   1.091344   2.209090   2.843335   4.171108
    27  H    4.741108   3.939090   2.559129   2.083906   1.090970
    28  H    6.906153   5.822415   4.559979   3.359281   2.128965
    29  H    8.388715   7.044724   6.388179   5.022097   4.923140
    30  H   10.809776   9.447619   8.739826   7.313786   6.997967
    31  H   12.882803  11.562965  10.662562   9.227754   8.500937
    32  H   15.254186  13.911391  13.033606  11.577804  10.874308
    33  H   14.619595  13.257918  12.504983  11.061564  10.599233
    34  H   10.957311   9.669988   8.706189   7.291955   6.497914
    35  H    8.620851   7.386151   6.379551   5.028863   4.196772
    36  H    6.347753   4.948486   4.602059   3.360043   3.842990
    37  H    3.960367   2.589176   2.661918   2.102302   3.324116
    38  H    3.259057   3.783307   3.247815   4.418312   4.569529
                    6          7          8          9         10
     6  C    0.000000
     7  C    1.407034   0.000000
     8  C    2.525011   1.487798   0.000000
     9  C    3.674221   2.525003   1.407052   0.000000
    10  C    4.847617   3.794534   2.424075   1.387052   0.000000
    11  N    5.161049   4.288030   2.800240   2.390265   1.357544
    12  C    6.605466   5.759832   4.272107   3.722904   2.431049
    13  C    7.371642   6.642064   5.180521   4.897755   3.713422
    14  C    8.730956   7.981550   6.504411   6.072323   4.779810
    15  N    9.290973   8.458906   6.972832   6.287091   4.912036
    16  C    8.615371   7.711443   6.253470   5.374028   3.990794
    17  N    7.308189   6.381647   4.932755   4.039355   2.656215
    18  C    4.448462   3.793114   2.422320   2.748686   2.347919
    19  C    3.116373   2.525495   1.407611   2.402049   2.751235
    20  C    2.402048   1.407620   2.525471   3.116328   4.452757
    21  C    2.748669   2.422308   3.793087   4.448417   5.809139
    22  N    4.039385   4.932773   6.381678   7.308214   8.636920
    23  C    5.374058   6.253484   7.711470   8.615388   9.955135
    24  N    6.287125   6.972850   8.458927   9.290982  10.660346
    25  H    7.046828   7.361004   8.815651   9.501787  10.874262
    26  H    5.158434   5.147781   6.532114   7.151458   8.500803
    27  H    2.178656   3.430202   4.699995   5.786967   6.997993
    28  H    1.093147   2.190459   2.780487   3.955745   4.923136
    29  H    3.955753   2.780480   2.190483   1.093145   2.128966
    30  H    5.786946   4.699962   3.430194   2.178631   1.090971
    31  H    7.151587   6.532222   5.147867   5.158510   4.171153
    32  H    9.501828   8.815677   7.361016   7.046832   5.796836
    33  H    9.292928   8.352089   6.940084   5.910549   4.569483
    34  H    5.160454   4.678037   3.414434   3.837988   3.324122
    35  H    2.969336   2.780071   2.190416   3.413598   3.842971
    36  H    3.413601   2.190437   2.780053   2.969291   4.196722
    37  H    3.837973   3.414440   4.678028   5.160425   6.497883
    38  H    5.910610   6.940126   8.352153   9.292992  10.599303
                   11         12         13         14         15
    11  N    0.000000
    12  C    1.472290   0.000000
    13  C    2.515607   1.390691   0.000000
    14  C    3.747661   2.357075   1.404144   0.000000
    15  N    4.178939   2.710401   2.399481   1.333123   0.000000
    16  C    3.575752   2.263270   2.687341   2.270578   1.332790
    17  N    2.340821   1.322714   2.389460   2.717627   2.376921
    18  C    1.356235   2.472367   2.951790   4.342276   5.080288
    19  C    2.390363   3.750748   4.335352   5.726012   6.421988
    20  C    5.165343   6.601448   7.556073   8.856585   9.248499
    21  C    6.515389   7.964157   8.894575  10.212661  10.622969
    22  N    9.141283  10.602306  11.397823  12.762151  13.292123
    23  C   10.477044  11.939030  12.731101  14.097751  14.628918
    24  N   11.256810  12.728125  13.554828  14.921084  15.424545
    25  H   11.577768  13.033579  13.911384  15.254184  15.699266
    26  H    9.227634  10.662452  11.562875  12.882719  13.300242
    27  H    7.313830   8.739873   9.447702  10.809859  11.404191
    28  H    5.022114   6.388196   7.044781   8.388768   9.007957
    29  H    3.359275   4.559975   5.822409   6.906147   6.963635
    30  H    2.083911   2.559147   3.939095   4.741119   4.575802
    31  H    2.843400   2.209113   1.091345   2.163299   3.372193
    32  H    4.680788   3.374043   2.183444   1.096637   2.068775
    33  H    4.418291   3.247807   3.783311   3.259072   2.078538
    34  H    2.102325   2.661951   2.589231   3.960432   4.927123
    35  H    3.360033   4.602060   4.948513   6.347790   7.184589
    36  H    5.028827   6.379528   7.386138   8.620845   8.927986
    37  H    7.291937   8.706182   9.669998  10.957328  11.314075
    38  H   11.061641  12.505067  13.258029  14.619710  15.174657
                   16         17         18         19         20
    16  C    0.000000
    17  N    1.337686   0.000000
    18  C    4.722146   3.595612   0.000000
    19  C    5.949304   4.724696   1.386015   0.000000
    20  C    8.420513   7.094235   4.852810   3.679972   0.000000
    21  C    9.789914   8.459840   6.115413   4.852809   1.386013
    22  N   12.539944  11.212745   8.459905   7.094297   4.724724
    23  C   13.868485  12.539939   9.789979   8.420574   5.949325
    24  N   14.628905  13.292108  10.623025   9.248553   6.422010
    25  H   14.857413  13.528038  11.061420   9.722367   6.454058
    26  H   12.457814  11.139130   8.791177   7.504551   4.073746
    27  H   10.742718   9.444348   6.527286   5.194495   3.840796
    28  H    8.420142   7.162447   4.190363   2.969331   3.413935
    29  H    5.919390   4.622970   3.840235   3.413939   2.969269
    30  H    3.459072   2.213808   3.311467   3.840776   5.194418
    31  H    3.777686   3.397100   2.758064   4.073831   7.504629
    32  H    3.252863   3.813443   5.077769   6.454067   9.722366
    33  H    1.095995   2.077484   5.651365   6.799987   8.975006
    34  H    4.858133   3.945183   1.089643   2.155110   5.778990
    35  H    6.846309   5.681531   2.130009   1.093186   3.963319
    36  H    8.057230   6.763937   4.931744   3.963316   1.093184
    37  H   10.440488   9.126746   6.986131   5.779004   2.155125
    38  H   14.443366  13.128553  10.327518   8.975099   6.800032
                   21         22         23         24         25
    21  C    0.000000
    22  N    3.595626   0.000000
    23  C    4.722155   1.337684   0.000000
    24  N    5.080306   2.376931   1.332799   0.000000
    25  H    5.077766   3.813428   3.252848   2.068757   0.000000
    26  H    2.757989   3.397074   3.777686   3.372224   2.511845
    27  H    3.311464   2.213812   3.459081   4.575822   5.818102
    28  H    3.840220   4.623011   5.919435   6.963684   7.923460
    29  H    4.190305   7.162478   8.420163   9.007965   9.105872
    30  H    6.527207   9.444348  10.742710  11.404168  11.534686
    31  H    8.791258  11.139281  12.457967  13.300384  13.707472
    32  H   11.061420  13.528107  14.857483  15.699325  16.061393
    33  H   10.327417  13.128508  14.443314  15.174595  15.354120
    34  H    6.986115   9.126793  10.440535  11.314114  11.821611
    35  H    4.931746   6.763994   8.057290   8.928040   9.513611
    36  H    2.130002   5.681548   6.846315   7.184593   6.947971
    37  H    1.089646   3.945150   4.858091   4.927087   4.503989
    38  H    5.651392   2.077499   1.095993   2.078521   4.139665
                   26         27         28         29         30
    26  H    0.000000
    27  H    4.626387   0.000000
    28  H    6.174219   2.485562   0.000000
    29  H    6.770556   5.896035   4.415190   0.000000
    30  H    9.150059   7.898341   5.896011   2.485525   0.000000
    31  H   11.407971   9.150229   6.770699   6.174282   4.626439
    32  H   13.707392  11.534768   9.105922   7.923449   5.818109
    33  H   12.958017  11.404635   9.143895   6.288713   3.821348
    34  H    9.603075   7.117362   4.757733   4.928929   4.182142
    35  H    7.423838   4.799309   2.680415   4.354187   4.931390
    36  H    4.467369   4.931407   4.354186   2.680336   4.799226
    37  H    2.042815   4.182115   4.928915   4.757682   7.117296
    38  H    4.873648   3.821380   6.288792   9.143971  11.404681
                   31         32         33         34         35
    31  H    0.000000
    32  H    2.511785   0.000000
    33  H    4.873651   4.139699   0.000000
    34  H    2.042925   4.504034   5.882794   0.000000
    35  H    4.467468   6.947999   7.750849   2.453004   0.000000
    36  H    7.423907   9.513607   8.553499   5.900181   4.425871
    37  H    9.603171  11.821630  10.922437   7.877502   5.900197
    38  H   12.958205  15.354230  15.031140  10.922518   8.553583
                   36         37         38
    36  H    0.000000
    37  H    2.453023   0.000000
    38  H    7.750880   5.882766   0.000000
 Framework group  C1[X(C18H14N6)]
 Deg. of freedom   108
                         Standard orientation:                         
 ---------------------------------------------------------------------
 Center     Atomic      Atomic             Coordinates (Angstroms)
 Number     Number       Type             X           Y           Z
 ---------------------------------------------------------------------
      1          6           0        7.177201    0.845492   -0.533807
      2          6           0        5.789967    1.009656   -0.676001
      3          6           0        5.015474    0.058349   -0.020848
      4          7           0        3.543482    0.067321   -0.048669
      5          6           0        2.882494   -1.013871    0.438239
      6          6           0        1.496413   -1.065719    0.440312
      7          6           0        0.743783    0.013141   -0.059043
      8          6           0       -0.743782   -0.013190   -0.059082
      9          6           0       -1.496407    1.065697    0.440272
     10          6           0       -2.882488    1.013852    0.438171
     11          7           0       -3.543479   -0.067333   -0.048710
     12          6           0       -5.015479   -0.058358   -0.020861
     13          6           0       -5.789998   -1.009630   -0.676013
     14          6           0       -7.177238   -0.845452   -0.533777
     15          7           0       -7.710797    0.150259    0.174102
     16          6           0       -6.861326    1.002850    0.746655
     17          7           0       -5.526801    0.941102    0.678568
     18          6           0       -2.843869   -1.123425   -0.533055
     19          6           0       -1.457955   -1.122491   -0.549775
     20          6           0        1.457932    1.122458   -0.549757
     21          6           0        2.843844    1.123396   -0.533026
     22          7           0        5.526839   -0.941096    0.678555
     23          6           0        6.861364   -1.002809    0.746634
     24          7           0        7.710822   -0.150205    0.174061
     25          1           0        7.882158    1.537335   -1.010256
     26          1           0        5.402307    1.830273   -1.282087
     27          1           0        3.502266   -1.824884    0.823411
     28          1           0        1.020466   -1.957581    0.856277
     29          1           0       -1.020464    1.957583    0.856186
     30          1           0       -3.502227    1.824893    0.823337
     31          1           0       -5.402421   -1.830281   -1.282108
     32          1           0       -7.882199   -1.537304   -1.010205
     33          1           0       -7.290080    1.826988    1.328180
     34          1           0       -3.401890   -1.985188   -0.898153
     35          1           0       -0.949720   -1.998801   -0.960669
     36          1           0        0.949703    1.998763   -0.960663
     37          1           0        3.401891    1.985153   -0.898109
     38          1           0        7.290173   -1.826966    1.328088
 ---------------------------------------------------------------------
 Rotational constants (GHZ):           1.5033939           0.0666275           0.0651768
   364 basis functions,   656 primitive gaussians,   388 cartesian basis functions
    81 alpha electrons       81 beta electrons
       nuclear repulsion energy      1728.4282143291 Hartrees.
 NAtoms=   38 NActive=   38 NUniq=   38 SFac= 1.00D+00 NAtFMM=   60 NAOKFM=F Big=F
   1 Symmetry operations used in ECPInt.
 ECPInt:  NShTT=   14878 NPrTT=   59694 LenC2=   11699 LenP2D=   31189.
 LDataN:  DoStor=T MaxTD1= 4 Len=   56
 Initial guess from the checkpoint file:  "/work/169300.vici.chem.tamu.edu/Gau-16374.chk"
 B after Tr=     0.000000    0.000000    0.000000
         Rot=    1.000000    0.000011   -0.000000    0.000169 Ang=   0.02 deg.
 ExpMin= 1.22D-01 ExpMax= 1.71D+03 ExpMxC= 2.58D+02 IAcc=3 IRadAn=         5 AccDes= 0.00D+00
 Harris functional with IExCor=  402 and IRadAn=       5 diagonalized for initial guess.
 HarFok:  IExCor=  402 AccDes= 0.00D+00 IRadAn=         5 IDoV= 1 UseB2=F ITyADJ=14
 ICtDFT=  3500011 ScaDFX=  1.000000  1.000000  1.000000  1.000000
[...]
    34  H    2.092773   2.638507   2.617856   3.954055   4.869782
    35  H    3.356633   4.598589   4.963329   6.349958   7.156295
    36  H    5.021241   6.374862   7.357837   8.600384   8.917681
    37  H    7.300431   8.718470   9.660632  10.955200  11.320405
    38  H   11.062598  12.507394  13.299570  14.649397  15.154004
                   16         17         18         19         20
    16  C    0.000000
    17  N    1.337679   0.000000
    18  C    4.695462   3.564983   0.000000
    19  C    5.928207   4.701590   1.385562   0.000000
    20  C    8.425895   7.100083   4.895376   3.737968   0.000000
    21  C    9.794386   8.464592   6.147826   4.895376   1.385562
    22  N   12.508234  11.180011   8.464590   7.100082   4.701589
    23  C   13.837463  12.508236   9.794384   8.425892   5.928208
    24  N   14.608341  13.271416  10.610132   9.236295   6.398940
    25  H   14.871979  13.543485  11.029475   9.690987   6.448001
    26  H   12.484784  11.168353   8.741709   7.454207   4.086730
    27  H   10.748297   9.449595   6.488174   5.139934   3.843889
    28  H    8.408504   7.150772   4.097685   2.836012   3.415729
    29  H    5.961915   4.670618   3.843201   3.415729   2.836012
    30  H    3.500422   2.276422   3.309012   3.843889   5.139934
    31  H    3.787918   3.395565   2.797118   4.086728   7.454206
    32  H    3.260640   3.810454   5.079339   6.448000   9.690987
    33  H    1.095799   2.079676   5.615977   6.771886   8.987830
    34  H    4.786187   3.871039   1.090532   2.168506   5.854254
    35  H    6.812908   5.646300   2.129026   1.092364   4.059504
    36  H    8.066546   6.773941   5.006995   4.059504   1.092364
    37  H   10.464931   9.150984   7.050632   5.854254   2.168506
    38  H   14.394608  13.078835  10.339227   8.987829   6.771885
                   21         22         23         24         25
    21  C    0.000000
    22  N    3.564983   0.000000
    23  C    4.695464   1.337679   0.000000
    24  N    5.055450   2.368616   1.331779   0.000000
    25  H    5.079340   3.810454   3.260640   2.075139   0.000000
    26  H    2.797120   3.395565   3.787918   3.377236   2.515683
    27  H    3.309012   2.276419   3.500416   4.566296   5.754782
    28  H    3.843201   4.670616   5.961911   6.968498   7.878768
    29  H    4.097685   7.150771   8.408507   8.986589   9.087015
    30  H    6.488174   9.449595  10.748299  11.400629  11.531993
    31  H    8.741708  11.168350  12.484778  13.262434  13.562603
    32  H   11.029474  13.543482  14.871975  15.666520  15.952802
    33  H   10.339229  13.078836  14.394612  15.154006  15.402949
    34  H    7.050632   9.150982  10.464927  11.320404  11.804812
    35  H    5.006995   6.773939   8.066542   8.917680   9.478598
    36  H    2.129026   5.646300   6.812910   7.156296   6.953375
    37  H    1.090532   3.871040   4.786191   4.869784   4.512520
    38  H    5.615976   2.079676   1.095799   2.082668   4.150305
                   26         27         28         29         30
    26  H    0.000000
    27  H    4.527164   0.000000
    28  H    6.089837   2.505071   0.000000
    29  H    6.759116   6.004660   4.561596   0.000000
    30  H    9.149907   7.990879   6.004660   2.505071   0.000000
    31  H   11.209909   9.149905   6.759114   6.089837   4.527164
    32  H   13.562604  11.531992   9.087014   7.878768   5.754783
    33  H   13.034272  11.409175   9.131360   6.357957   3.897722
    34  H    9.564045   7.064113   4.631127   4.931598   4.164334
    35  H    7.363737   4.679813   2.409226   4.354544   4.933421
    36  H    4.511011   4.933421   4.354544   2.409226   4.679812
    37  H    2.171022   4.164334   4.931598   4.631126   7.064113
    38  H    4.883568   3.897720   6.357955   9.131358  11.409172
                   31         32         33         34         35
    31  H    0.000000
    32  H    2.515683   0.000000
    33  H    4.883568   4.150304   0.000000
    34  H    2.171019   4.512518   5.793392   0.000000
    35  H    4.511009   6.953373   7.704070   2.473412   0.000000
    36  H    7.363736   9.478598   8.572755   6.020708   4.580072
    37  H    9.564044  11.804811  10.955752   7.983538   6.020708
    38  H   13.034269  15.402947  14.948913  10.955751   8.572755
                   36         37         38
    36  H    0.000000
    37  H    2.473412   0.000000
    38  H    7.704069   5.793392   0.000000
 Framework group  C1[X(C18H14N6)]
 Deg. of freedom   108
                         Standard orientation:                         
 ---------------------------------------------------------------------
 Center     Atomic      Atomic             Coordinates (Angstroms)
 Number     Number       Type             X           Y           Z
 ---------------------------------------------------------------------
      1          6           0        7.163063    0.762241   -0.647896
      2          6           0        5.772823    0.901026   -0.813590
      3          6           0        5.012108    0.047175   -0.020904
      4          7           0        3.537091    0.056137   -0.051730
      5          6           0        2.878664   -1.069582    0.323965
      6          6           0        1.492984   -1.117299    0.319986
      7          6           0        0.744022    0.011213   -0.061572
      8          6           0       -0.744022   -0.011211   -0.061572
      9          6           0       -1.492983    1.117301    0.319986
     10          6           0       -2.878664    1.069584    0.323965
     11          7           0       -3.537091   -0.056135   -0.051731
     12          6           0       -5.012108   -0.047173   -0.020906
     13          6           0       -5.772821   -0.901027   -0.813591
     14          6           0       -7.163062   -0.762242   -0.647899
     15          7           0       -7.696389    0.121849    0.189938
     16          6           0       -6.860097    0.898840    0.875895
     17          7           0       -5.525567    0.846331    0.800678
     18          6           0       -2.844993   -1.164024   -0.416737
     19          6           0       -1.459508   -1.167449   -0.430904
     20          6           0        1.459508    1.167451   -0.430904
     21          6           0        2.844994    1.164026   -0.416737
     22          7           0        5.525566   -0.846332    0.800678
     23          6           0        6.860096   -0.898850    0.875888
     24          7           0        7.696389   -0.121853    0.189939
     25          1           0        7.854669    1.388222   -1.224565
     26          1           0        5.368481    1.610881   -1.537546
     27          1           0        3.514538   -1.900410    0.637067
     28          1           0        1.013557   -2.043218    0.646102
     29          1           0       -1.013557    2.043219    0.646102
     30          1           0       -3.514538    1.900412    0.637066
     31          1           0       -5.368479   -1.610881   -1.537546
     32          1           0       -7.854667   -1.388223   -1.224568
     33          1           0       -7.292632    1.638608    1.558854
     34          1           0       -3.424860   -2.050500   -0.675918
     35          1           0       -0.952637   -2.082485   -0.745627
     36          1           0        0.952637    2.082487   -0.745626
     37          1           0        3.424860    2.050502   -0.675917
     38          1           0        7.292630   -1.638604    1.558862
 ---------------------------------------------------------------------
 Rotational constants (GHZ):           1.4997796           0.0667198           0.0654241

 **********************************************************************

            Population analysis using the SCF Density.

 **********************************************************************

 Orbital symmetries:
       Occupied  (A) (A) (A) (A) (A) (A) (A) (A) (A) (A) (A) (A)
                 (A) (A) (A) (A) (A) (A) (A) (A) (A) (A) (A) (A)
                 (A) (A) (A) (A) (A) (A) (A) (A) (A) (A) (A) (A)
                 (A) (A) (A) (A) (A) (A) (A) (A) (A) (A) (A) (A)
                 (A) (A) (A) (A) (A) (A) (A) (A) (A) (A) (A) (A)
                 (A) (A) (A) (A) (A) (A) (A) (A) (A) (A) (A) (A)
                 (A) (A) (A) (A) (A) (A) (A) (A) (A)
       Virtual   (A) (A) (A) (A) (A) (A) (A) (A) (A) (A) (A) (A)
                 (A) (A) (A) (A) (A) (A) (A) (A) (A) (A) (A) (A)
                 (A) (A) (A) (A) (A) (A) (A) (A) (A) (A) (A) (A)
                 (A) (A) (A) (A) (A) (A) (A) (A) (A) (A) (A) (A)
                 (A) (A) (A) (A) (A) (A) (A) (A) (A) (A) (A) (A)
                 (A) (A) (A) (A) (A) (A) (A) (A) (A) (A) (A) (A)
                 (A) (A) (A) (A) (A) (A) (A) (A) (A) (A) (A) (A)
                 (A) (A) (A) (A) (A) (A) (A) (A) (A) (A) (A) (A)
                 (A) (A) (A) (A) (A) (A) (A) (A) (A) (A) (A) (A)
                 (A) (A) (A) (A) (A) (A) (A) (A) (A) (A) (A) (A)
                 (A) (A) (A) (A) (A) (A) (A) (A) (A) (A) (A) (A)
                 (A) (A) (A) (A) (A) (A) (A) (A) (A) (A) (A) (A)
                 (A) (A) (A) (A) (A) (A) (A) (A) (A) (A) (A) (A)
                 (A) (A) (A) (A) (A) (A) (A) (A) (A) (A) (A) (A)
                 (A) (A) (A) (A) (A) (A) (A) (A) (A) (A) (A) (A)
                 (A) (A) (A) (A) (A) (A) (A) (A) (A) (A) (A) (A)
                 (A) (A) (A) (A) (A) (A) (A) (A) (A) (A) (A) (A)
                 (A) (A) (A) (A) (A) (A) (A) (A) (A) (A) (A) (A)
                 (A) (A) (A) (A) (A) (A) (A) (A) (A) (A) (A) (A)
                 (A) (A) (A) (A) (A) (A) (A) (A) (A) (A) (A) (A)
                 (A) (A) (A) (A) (A) (A) (A) (A) (A) (A) (A) (A)
                 (A) (A) (A) (A) (A) (A) (A) (A) (A) (A) (A) (A)
                 (A) (A) (A) (A) (A) (A) (A) (A) (A) (A) (A) (A)
                 (A) (A) (A) (A) (A) (A) (A)
 The electronic state is 1-A.
 Alpha  occ. eigenvalues --  -14.70887 -14.70886 -14.56853 -14.56853 -14.54540
 Alpha  occ. eigenvalues --  -14.54540 -10.53120 -10.53120 -10.52602 -10.52602
 Alpha  occ. eigenvalues --  -10.52355 -10.52355 -10.51740 -10.51736 -10.49188
 Alpha  occ. eigenvalues --  -10.49188 -10.48972 -10.48972 -10.47440 -10.47440
 Alpha  occ. eigenvalues --  -10.45829 -10.45829 -10.44334 -10.44334  -1.29447
 Alpha  occ. eigenvalues --   -1.29406  -1.21299  -1.21254  -1.14508  -1.12122
 Alpha  occ. eigenvalues --   -1.11136  -1.08621  -1.06642  -1.06308  -1.02880
 Alpha  occ. eigenvalues --   -1.01965  -0.97462  -0.95627  -0.93878  -0.92418
 Alpha  occ. eigenvalues --   -0.89705  -0.88529  -0.88085  -0.87893  -0.83438
 Alpha  occ. eigenvalues --   -0.81878  -0.81446  -0.79140  -0.78265  -0.76094
 Alpha  occ. eigenvalues --   -0.75801  -0.75507  -0.74953  -0.73505  -0.73312
 Alpha  occ. eigenvalues --   -0.72610  -0.72447  -0.72205  -0.70218  -0.70070
 Alpha  occ. eigenvalues --   -0.68762  -0.67525  -0.67232  -0.66395  -0.65655
 Alpha  occ. eigenvalues --   -0.65561  -0.65261  -0.63471  -0.63266  -0.62424
 Alpha  occ. eigenvalues --   -0.58335  -0.56303  -0.56228  -0.54552  -0.53944
 Alpha  occ. eigenvalues --   -0.53064  -0.53051  -0.51680  -0.51376  -0.47446
 Alpha  occ. eigenvalues --   -0.47441
 Alpha virt. eigenvalues --   -0.37871  -0.32658  -0.31191  -0.30683  -0.26304
 Alpha virt. eigenvalues --   -0.26081  -0.25661  -0.25068  -0.18265  -0.18005
 Alpha virt. eigenvalues --   -0.17787  -0.16538  -0.15019  -0.14047  -0.13502
 Alpha virt. eigenvalues --   -0.12242  -0.11366  -0.10959  -0.09739  -0.09652
 Alpha virt. eigenvalues --   -0.09398  -0.09233  -0.08615  -0.07245  -0.06420
 Alpha virt. eigenvalues --   -0.06125  -0.05118  -0.04564  -0.03687  -0.03269
 Alpha virt. eigenvalues --   -0.02938  -0.02133  -0.01188  -0.01084  -0.00557
 Alpha virt. eigenvalues --    0.00211   0.00660   0.01427   0.01997   0.03496
 Alpha virt. eigenvalues --    0.04648   0.06163   0.07276   0.08141   0.09205
 Alpha virt. eigenvalues --    0.09937   0.10408   0.11122   0.11381   0.11813
 Alpha virt. eigenvalues --    0.12538   0.13080   0.13431   0.14044   0.14573
 Alpha virt. eigenvalues --    0.15117   0.15656   0.16556   0.17644   0.17879
 Alpha virt. eigenvalues --    0.19091   0.19522   0.19634   0.20123   0.21359
 Alpha virt. eigenvalues --    0.21540   0.23313   0.23406   0.23711   0.24906
 Alpha virt. eigenvalues --    0.25914   0.26294   0.27072   0.28750   0.29467
 Alpha virt. eigenvalues --    0.29675   0.30137   0.30612   0.31385   0.32177
 Alpha virt. eigenvalues --    0.32987   0.32994   0.33632   0.34405   0.36294
 Alpha virt. eigenvalues --    0.36795   0.36806   0.37007   0.38246   0.38508
 Alpha virt. eigenvalues --    0.39374   0.40149   0.40347   0.40675   0.40993
 Alpha virt. eigenvalues --    0.41697   0.42580   0.42581   0.43124   0.43945
 Alpha virt. eigenvalues --    0.44936   0.45410   0.45642   0.46386   0.46454
 Alpha virt. eigenvalues --    0.46911   0.47654   0.48000   0.48264   0.48468
 Alpha virt. eigenvalues --    0.49150   0.50044   0.52593   0.53071   0.54318
 Alpha virt. eigenvalues --    0.54521   0.55809   0.57093   0.57797   0.59359
 Alpha virt. eigenvalues --    0.59851   0.60173   0.61250   0.62768   0.63174
 Alpha virt. eigenvalues --    0.64392   0.65984   0.66318   0.67034   0.70527
 Alpha virt. eigenvalues --    0.71118   0.71716   0.72445   0.73101   0.73414
 Alpha virt. eigenvalues --    0.73686   0.74284   0.76928   0.76998   0.81241
 Alpha virt. eigenvalues --    0.82131   0.82730   0.83896   0.88160   0.88647
 Alpha virt. eigenvalues --    0.89835   0.90195   0.92589   0.93368   0.96977
 Alpha virt. eigenvalues --    0.97642   0.97909   0.98607   0.99512   1.02939
 Alpha virt. eigenvalues --    1.04015   1.05032   1.05240   1.06748   1.08134
 Alpha virt. eigenvalues --    1.08249   1.08547   1.09937   1.12665   1.12887
 Alpha virt. eigenvalues --    1.14413   1.15066   1.17037   1.19539   1.20052
 Alpha virt. eigenvalues --    1.21360   1.21934   1.22764   1.23856   1.24067
 Alpha virt. eigenvalues --    1.26468   1.28585   1.28763   1.33456   1.33490
 Alpha virt. eigenvalues --    1.35558   1.35606   1.40887   1.41323   1.41432
 Alpha virt. eigenvalues --    1.45396   1.45913   1.47754   1.48371   1.49932
 Alpha virt. eigenvalues --    1.50975   1.54804   1.57741   1.57808   1.59691
 Alpha virt. eigenvalues --    1.59712   1.60748   1.63574   1.63827   1.63958
 Alpha virt. eigenvalues --    1.64839   1.65201   1.66834   1.67060   1.67530
 Alpha virt. eigenvalues --    1.67880   1.75262   1.76152   1.80954   1.80999
 Alpha virt. eigenvalues --    1.81421   1.82008   1.84047   1.84334   1.86613
 Alpha virt. eigenvalues --    1.87008   1.87782   1.87787   1.88101   1.88464
 Alpha virt. eigenvalues --    1.90397   1.91197   1.91937   1.92691   1.96026
 Alpha virt. eigenvalues --    1.96027   1.99508   1.99620   2.01807   2.01826
 Alpha virt. eigenvalues --    2.02671   2.02842   2.05455   2.08153   2.09545
 Alpha virt. eigenvalues --    2.12979   2.17957   2.18956   2.19757   2.21507
 Alpha virt. eigenvalues --    2.24281   2.24317   2.29818   2.30411   2.31622
 Alpha virt. eigenvalues --    2.33301   2.33427   2.37001   2.38517   2.38691
 Alpha virt. eigenvalues --    2.39382   2.41323   2.41780   2.42391   2.43466
 Alpha virt. eigenvalues --    2.44153   2.45147   2.46936   2.47755   2.48207
 Alpha virt. eigenvalues --    2.48763   2.50404   2.50494   2.53969   2.54790
 Alpha virt. eigenvalues --    2.56103   2.60948   2.66171   2.67728   2.67848
 Alpha virt. eigenvalues --    2.69802   2.74411   2.78823   2.84797   2.87068
 Alpha virt. eigenvalues --    2.96935   2.98109   3.08736   3.11912   3.13543
 Alpha virt. eigenvalues --    3.17002   3.31274   3.32213
          Condensed to atoms (all electrons):
 Mulliken charges:
               1
     1  C    0.023238
     2  C   -0.126252
     3  C    0.150882
     4  N   -0.097622
     5  C    0.071313
     6  C   -0.093546
     7  C    0.157574
     8  C    0.157574
     9  C   -0.093546
    10  C    0.071313
    11  N   -0.097622
    12  C    0.150882
    13  C   -0.126252
    14  C    0.023238
    15  N   -0.056479
    16  C    0.058338
    17  N   -0.111847
    18  C    0.059052
    19  C   -0.096973
    20  C   -0.096973
    21  C    0.059052
    22  N   -0.111847
    23  C    0.058338
    24  N   -0.056479
    25  H    0.149608
    26  H    0.120023
    27  H    0.186858
    28  H    0.142605
    29  H    0.142605
    30  H    0.186857
    31  H    0.120023
    32  H    0.149608
    33  H    0.152920
    34  H    0.169396
    35  H    0.140912
    36  H    0.140912
    37  H    0.169396
    38  H    0.152921
 Sum of Mulliken charges =   2.00000
 Mulliken charges with hydrogens summed into heavy atoms:
               1
     1  C    0.172846
     2  C   -0.006229
     3  C    0.150882
     4  N   -0.097622
     5  C    0.258170
     6  C    0.049059
     7  C    0.157574
     8  C    0.157574
     9  C    0.049059
    10  C    0.258171
    11  N   -0.097622
    12  C    0.150882
    13  C   -0.006229
    14  C    0.172846
    15  N   -0.056479
    16  C    0.211259
    17  N   -0.111847
    18  C    0.228448
    19  C    0.043940
    20  C    0.043940
    21  C    0.228448
    22  N   -0.111847
    23  C    0.211259
    24  N   -0.056479
 Electronic spatial extent (au):  <R**2>=          14809.0748
 Charge=              2.0000 electrons
 Dipole moment (field-independent basis, Debye):
    X=              0.0000    Y=              0.0000    Z=             -2.7762  Tot=              2.7762

 Test job not archived.
 1\1\GINC-COMPUTE0-3-1\FOpt\RB3LYP\def2SVPP\C18H14N6(2+)\PETERLI3819\07
 -Jan-2020\0\\#T b3lyp/Def2SVPP opt=(MaxCycles=300) int(grid=ultrafine)
  IOP(3/36=4) scf=(xqc,tight)\\Comment gs min\\2,1\C,-7.1602515108,0.40
 58012555,0.9137251466\C,-5.7706968306,0.5771036718,1.0525670612\C,-5.0
 092098081,-0.1424695064,0.1368968163\N,-3.535229386,-0.0800098173,0.12
 32388626\C,-2.8517187693,-1.1244710252,-0.4095173764\C,-1.4659411913,-
 1.1183878189,-0.4540996372\C,-0.7436840738,-0.0171421701,0.0415535818\
 C,0.7433107367,0.0184938133,-0.0069777434\C,1.4386162103,1.2136521405,
 -0.2681601404\C,2.8241127847,1.2207147612,-0.3206341043\N,3.5341609274
 ,0.083783906,-0.1081838451\C,5.0059640963,0.1538303115,-0.1829850016\C
 ,5.8234419666,-0.7608481478,0.4736680491\C,7.2012930497,-0.5487641733,
 0.2838506057\N,7.6736174853,0.4517826266,-0.4536051126\C,6.7870969856,
 1.2741670532,-1.0116382618\N,5.4586913385,1.1609382569,-0.9025411608\C
 ,2.894347047,-1.0866752425,0.1373986746\C,1.5111842565,-1.145698741,0.
 1936147761\C,-1.4854695373,1.0561469708,0.5735461691\C,-2.8696330282,1
 .0006104568,0.6016617827\N,-5.5199687726,-0.947364187,-0.7731906237\C,
 -6.8536869357,-1.0420897111,-0.8132832097\N,-7.6917557526,-0.388531703
 ,-0.0107009452\H,-7.85241724,0.9286817848,1.5847100765\H,-5.365978551,
 1.2076536606,1.8463599187\H,-3.4689654487,-1.9345488331,-0.8037562416\
 H,-0.9664110036,-1.9777830007,-0.9073490745\H,0.9160505595,2.153313959
 4,-0.4617740711\H,3.4192432652,2.1078562788,-0.5474454654\H,5.46985971
 5,-1.5695845397,1.1158692216\H,7.9341913484,-1.2135803148,0.7567119083
 \H,7.169244599,2.1086174384,-1.6103296498\H,3.5134930837,-1.9750814484
 ,0.2664429456\H,1.0478851447,-2.1115259796,0.407601927\H,-0.9999397352
 ,1.944511803,0.9838235866\H,-3.4704715724,1.8252248795,0.9867122587\H,
 -7.2840754529,-1.7084286685,-1.5692817041\\Version=EM64L-G16RevB.01\St
 ate=1-A\HF=-1021.5078172\RMSD=3.739e-09\RMSF=3.450e-06\Dipole=0.038572
 8,-0.1344124,1.0832363\Quadrupole=79.8488006,-32.1199675,-47.7288331,-
 7.0293039,-5.4322191,2.2457439\PG=C01 [X(C18H14N6)]\\@


 It takes a long time to grow an old friend.
                            -- John Leonard
 Job cpu time:       0 days  4 hours 19 minutes 31.0 seconds.
 Elapsed time:       0 days  4 hours 19 minutes 56.0 seconds.
 File lengths (MBytes):  RWF=    116 Int=      0 D2E=      0 Chk=     12 Scr=      2
 Normal termination of Gaussian 16 at Tue Jan  7 21:25:58 2020.
